source,n_elements,doping_concentration,name,termination,space_group,doping_level,volume_fraction,weight_percent,lattice_c,temperature,reinforcement,matrix,layers,material_id,molecular_weight,deposition_method,type,lattice_b,pdi,formula,composition,lattice_a,thickness_nm,dopant,substrate
Systematic_Generation,,,Epoxy_CNT_1vol,,,,0.01,,,,CNT,Epoxy,,COMP_007247,,,Composite,,,Epoxy+CNT,Epoxy matrix with 1% CNT,,,,
Systematic_Generation,,,Epoxy_CNT_2vol,,,,0.02,,,,CNT,Epoxy,,COMP_007248,,,Composite,,,Epoxy+CNT,Epoxy matrix with 2% CNT,,,,
Systematic_Generation,,,Epoxy_CNT_5vol,,,,0.05,,,,CNT,Epoxy,,COMP_007249,,,Composite,,,Epoxy+CNT,Epoxy matrix with 5% CNT,,,,
Systematic_Generation,,,Epoxy_CNT_10vol,,,,0.1,,,,CNT,Epoxy,,COMP_007250,,,Composite,,,Epoxy+CNT,Epoxy matrix with 10% CNT,,,,
Systematic_Generation,,,Epoxy_CNT_15vol,,,,0.15,,,,CNT,Epoxy,,COMP_007251,,,Composite,,,Epoxy+CNT,Epoxy matrix with 15% CNT,,,,
Systematic_Generation,,,Epoxy_CNT_20vol,,,,0.2,,,,CNT,Epoxy,,COMP_007252,,,Composite,,,Epoxy+CNT,Epoxy matrix with 20% CNT,,,,
Systematic_Generation,,,Epoxy_CNT_25vol,,,,0.25,,,,CNT,Epoxy,,COMP_007253,,,Composite,,,Epoxy+CNT,Epoxy matrix with 25% CNT,,,,
Systematic_Generation,,,Epoxy_CNT_30vol,,,,0.3,,,,CNT,Epoxy,,COMP_007254,,,Composite,,,Epoxy+CNT,Epoxy matrix with 30% CNT,,,,
Systematic_Generation,,,Epoxy_CNT_40vol,,,,0.4,,,,CNT,Epoxy,,COMP_007255,,,Composite,,,Epoxy+CNT,Epoxy matrix with 40% CNT,,,,
Systematic_Generation,,,Epoxy_CNT_50vol,,,,0.5,,,,CNT,Epoxy,,COMP_007256,,,Composite,,,Epoxy+CNT,Epoxy matrix with 50% CNT,,,,
Systematic_Generation,,,Epoxy_CNT_60vol,,,,0.6,,,,CNT,Epoxy,,COMP_007257,,,Composite,,,Epoxy+CNT,Epoxy matrix with 60% CNT,,,,
Systematic_Generation,,,Epoxy_SiC_particles_1vol,,,,0.01,,,,SiC_particles,Epoxy,,COMP_007258,,,Composite,,,Epoxy+SiC_particles,Epoxy matrix with 1% SiC_particles,,,,
Systematic_Generation,,,Epoxy_SiC_particles_2vol,,,,0.02,,,,SiC_particles,Epoxy,,COMP_007259,,,Composite,,,Epoxy+SiC_particles,Epoxy matrix with 2% SiC_particles,,,,
Systematic_Generation,,,Epoxy_SiC_particles_5vol,,,,0.05,,,,SiC_particles,Epoxy,,COMP_007260,,,Composite,,,Epoxy+SiC_particles,Epoxy matrix with 5% SiC_particles,,,,
Systematic_Generation,,,Epoxy_SiC_particles_10vol,,,,0.1,,,,SiC_particles,Epoxy,,COMP_007261,,,Composite,,,Epoxy+SiC_particles,Epoxy matrix with 10% SiC_particles,,,,
Systematic_Generation,,,Epoxy_SiC_particles_15vol,,,,0.15,,,,SiC_particles,Epoxy,,COMP_007262,,,Composite,,,Epoxy+SiC_particles,Epoxy matrix with 15% SiC_particles,,,,
Systematic_Generation,,,Epoxy_SiC_particles_20vol,,,,0.2,,,,SiC_particles,Epoxy,,COMP_007263,,,Composite,,,Epoxy+SiC_particles,Epoxy matrix with 20% SiC_particles,,,,
Systematic_Generation,,,Epoxy_SiC_particles_25vol,,,,0.25,,,,SiC_particles,Epoxy,,COMP_007264,,,Composite,,,Epoxy+SiC_particles,Epoxy matrix with 25% SiC_particles,,,,
Systematic_Generation,,,Epoxy_SiC_particles_30vol,,,,0.3,,,,SiC_particles,Epoxy,,COMP_007265,,,Composite,,,Epoxy+SiC_particles,Epoxy matrix with 30% SiC_particles,,,,
Systematic_Generation,,,Epoxy_SiC_particles_40vol,,,,0.4,,,,SiC_particles,Epoxy,,COMP_007266,,,Composite,,,Epoxy+SiC_particles,Epoxy matrix with 40% SiC_particles,,,,
Systematic_Generation,,,Epoxy_SiC_particles_50vol,,,,0.5,,,,SiC_particles,Epoxy,,COMP_007267,,,Composite,,,Epoxy+SiC_particles,Epoxy matrix with 50% SiC_particles,,,,
Systematic_Generation,,,Epoxy_SiC_particles_60vol,,,,0.6,,,,SiC_particles,Epoxy,,COMP_007268,,,Composite,,,Epoxy+SiC_particles,Epoxy matrix with 60% SiC_particles,,,,
Systematic_Generation,,,Epoxy_Al2O3_particles_1vol,,,,0.01,,,,Al2O3_particles,Epoxy,,COMP_007269,,,Composite,,,Epoxy+Al2O3_particles,Epoxy matrix with 1% Al2O3_particles,,,,
Systematic_Generation,,,Epoxy_Al2O3_particles_2vol,,,,0.02,,,,Al2O3_particles,Epoxy,,COMP_007270,,,Composite,,,Epoxy+Al2O3_particles,Epoxy matrix with 2% Al2O3_particles,,,,
Systematic_Generation,,,Epoxy_Al2O3_particles_5vol,,,,0.05,,,,Al2O3_particles,Epoxy,,COMP_007271,,,Composite,,,Epoxy+Al2O3_particles,Epoxy matrix with 5% Al2O3_particles,,,,
Systematic_Generation,,,Epoxy_Al2O3_particles_10vol,,,,0.1,,,,Al2O3_particles,Epoxy,,COMP_007272,,,Composite,,,Epoxy+Al2O3_particles,Epoxy matrix with 10% Al2O3_particles,,,,
Systematic_Generation,,,Epoxy_Al2O3_particles_15vol,,,,0.15,,,,Al2O3_particles,Epoxy,,COMP_007273,,,Composite,,,Epoxy+Al2O3_particles,Epoxy matrix with 15% Al2O3_particles,,,,
Systematic_Generation,,,Epoxy_Al2O3_particles_20vol,,,,0.2,,,,Al2O3_particles,Epoxy,,COMP_007274,,,Composite,,,Epoxy+Al2O3_particles,Epoxy matrix with 20% Al2O3_particles,,,,
Systematic_Generation,,,Epoxy_Al2O3_particles_25vol,,,,0.25,,,,Al2O3_particles,Epoxy,,COMP_007275,,,Composite,,,Epoxy+Al2O3_particles,Epoxy matrix with 25% Al2O3_particles,,,,
Systematic_Generation,,,Epoxy_Al2O3_particles_30vol,,,,0.3,,,,Al2O3_particles,Epoxy,,COMP_007276,,,Composite,,,Epoxy+Al2O3_particles,Epoxy matrix with 30% Al2O3_particles,,,,
Systematic_Generation,,,Epoxy_Al2O3_particles_40vol,,,,0.4,,,,Al2O3_particles,Epoxy,,COMP_007277,,,Composite,,,Epoxy+Al2O3_particles,Epoxy matrix with 40% Al2O3_particles,,,,
Systematic_Generation,,,Epoxy_Al2O3_particles_50vol,,,,0.5,,,,Al2O3_particles,Epoxy,,COMP_007278,,,Composite,,,Epoxy+Al2O3_particles,Epoxy matrix with 50% Al2O3_particles,,,,
Systematic_Generation,,,Epoxy_Al2O3_particles_60vol,,,,0.6,,,,Al2O3_particles,Epoxy,,COMP_007279,,,Composite,,,Epoxy+Al2O3_particles,Epoxy matrix with 60% Al2O3_particles,,,,
Systematic_Generation,,,Epoxy_TiO2_particles_1vol,,,,0.01,,,,TiO2_particles,Epoxy,,COMP_007280,,,Composite,,,Epoxy+TiO2_particles,Epoxy matrix with 1% TiO2_particles,,,,
Systematic_Generation,,,Epoxy_TiO2_particles_2vol,,,,0.02,,,,TiO2_particles,Epoxy,,COMP_007281,,,Composite,,,Epoxy+TiO2_particles,Epoxy matrix with 2% TiO2_particles,,,,
Systematic_Generation,,,Epoxy_TiO2_particles_5vol,,,,0.05,,,,TiO2_particles,Epoxy,,COMP_007282,,,Composite,,,Epoxy+TiO2_particles,Epoxy matrix with 5% TiO2_particles,,,,
Systematic_Generation,,,Epoxy_TiO2_particles_10vol,,,,0.1,,,,TiO2_particles,Epoxy,,COMP_007283,,,Composite,,,Epoxy+TiO2_particles,Epoxy matrix with 10% TiO2_particles,,,,
Systematic_Generation,,,Epoxy_TiO2_particles_15vol,,,,0.15,,,,TiO2_particles,Epoxy,,COMP_007284,,,Composite,,,Epoxy+TiO2_particles,Epoxy matrix with 15% TiO2_particles,,,,
Systematic_Generation,,,Epoxy_TiO2_particles_20vol,,,,0.2,,,,TiO2_particles,Epoxy,,COMP_007285,,,Composite,,,Epoxy+TiO2_particles,Epoxy matrix with 20% TiO2_particles,,,,
Systematic_Generation,,,Epoxy_TiO2_particles_25vol,,,,0.25,,,,TiO2_particles,Epoxy,,COMP_007286,,,Composite,,,Epoxy+TiO2_particles,Epoxy matrix with 25% TiO2_particles,,,,
Systematic_Generation,,,Epoxy_TiO2_particles_30vol,,,,0.3,,,,TiO2_particles,Epoxy,,COMP_007287,,,Composite,,,Epoxy+TiO2_particles,Epoxy matrix with 30% TiO2_particles,,,,
Systematic_Generation,,,Epoxy_TiO2_particles_40vol,,,,0.4,,,,TiO2_particles,Epoxy,,COMP_007288,,,Composite,,,Epoxy+TiO2_particles,Epoxy matrix with 40% TiO2_particles,,,,
Systematic_Generation,,,Epoxy_TiO2_particles_50vol,,,,0.5,,,,TiO2_particles,Epoxy,,COMP_007289,,,Composite,,,Epoxy+TiO2_particles,Epoxy matrix with 50% TiO2_particles,,,,
Systematic_Generation,,,Epoxy_TiO2_particles_60vol,,,,0.6,,,,TiO2_particles,Epoxy,,COMP_007290,,,Composite,,,Epoxy+TiO2_particles,Epoxy matrix with 60% TiO2_particles,,,,
Systematic_Generation,,,Epoxy_ZnO_1vol,,,,0.01,,,,ZnO,Epoxy,,COMP_007291,,,Composite,,,Epoxy+ZnO,Epoxy matrix with 1% ZnO,,,,
Systematic_Generation,,,Epoxy_ZnO_2vol,,,,0.02,,,,ZnO,Epoxy,,COMP_007292,,,Composite,,,Epoxy+ZnO,Epoxy matrix with 2% ZnO,,,,
Systematic_Generation,,,Epoxy_ZnO_5vol,,,,0.05,,,,ZnO,Epoxy,,COMP_007293,,,Composite,,,Epoxy+ZnO,Epoxy matrix with 5% ZnO,,,,
Systematic_Generation,,,Epoxy_ZnO_10vol,,,,0.1,,,,ZnO,Epoxy,,COMP_007294,,,Composite,,,Epoxy+ZnO,Epoxy matrix with 10% ZnO,,,,
Systematic_Generation,,,Epoxy_ZnO_15vol,,,,0.15,,,,ZnO,Epoxy,,COMP_007295,,,Composite,,,Epoxy+ZnO,Epoxy matrix with 15% ZnO,,,,
Systematic_Generation,,,Epoxy_ZnO_20vol,,,,0.2,,,,ZnO,Epoxy,,COMP_007296,,,Composite,,,Epoxy+ZnO,Epoxy matrix with 20% ZnO,,,,
Systematic_Generation,,,Epoxy_ZnO_25vol,,,,0.25,,,,ZnO,Epoxy,,COMP_007297,,,Composite,,,Epoxy+ZnO,Epoxy matrix with 25% ZnO,,,,
Systematic_Generation,,,Epoxy_ZnO_30vol,,,,0.3,,,,ZnO,Epoxy,,COMP_007298,,,Composite,,,Epoxy+ZnO,Epoxy matrix with 30% ZnO,,,,
Systematic_Generation,,,Epoxy_ZnO_40vol,,,,0.4,,,,ZnO,Epoxy,,COMP_007299,,,Composite,,,Epoxy+ZnO,Epoxy matrix with 40% ZnO,,,,
Systematic_Generation,,,Epoxy_ZnO_50vol,,,,0.5,,,,ZnO,Epoxy,,COMP_007300,,,Composite,,,Epoxy+ZnO,Epoxy matrix with 50% ZnO,,,,
Systematic_Generation,,,Epoxy_ZnO_60vol,,,,0.6,,,,ZnO,Epoxy,,COMP_007301,,,Composite,,,Epoxy+ZnO,Epoxy matrix with 60% ZnO,,,,
Systematic_Generation,,,Epoxy_SiC_whisker_1vol,,,,0.01,,,,SiC_whisker,Epoxy,,COMP_007302,,,Composite,,,Epoxy+SiC_whisker,Epoxy matrix with 1% SiC_whisker,,,,
Systematic_Generation,,,Epoxy_SiC_whisker_2vol,,,,0.02,,,,SiC_whisker,Epoxy,,COMP_007303,,,Composite,,,Epoxy+SiC_whisker,Epoxy matrix with 2% SiC_whisker,,,,
Systematic_Generation,,,Epoxy_SiC_whisker_5vol,,,,0.05,,,,SiC_whisker,Epoxy,,COMP_007304,,,Composite,,,Epoxy+SiC_whisker,Epoxy matrix with 5% SiC_whisker,,,,
Systematic_Generation,,,Epoxy_SiC_whisker_10vol,,,,0.1,,,,SiC_whisker,Epoxy,,COMP_007305,,,Composite,,,Epoxy+SiC_whisker,Epoxy matrix with 10% SiC_whisker,,,,
Systematic_Generation,,,Epoxy_SiC_whisker_15vol,,,,0.15,,,,SiC_whisker,Epoxy,,COMP_007306,,,Composite,,,Epoxy+SiC_whisker,Epoxy matrix with 15% SiC_whisker,,,,
Systematic_Generation,,,Epoxy_SiC_whisker_20vol,,,,0.2,,,,SiC_whisker,Epoxy,,COMP_007307,,,Composite,,,Epoxy+SiC_whisker,Epoxy matrix with 20% SiC_whisker,,,,
Systematic_Generation,,,Epoxy_SiC_whisker_25vol,,,,0.25,,,,SiC_whisker,Epoxy,,COMP_007308,,,Composite,,,Epoxy+SiC_whisker,Epoxy matrix with 25% SiC_whisker,,,,
Systematic_Generation,,,Epoxy_SiC_whisker_30vol,,,,0.3,,,,SiC_whisker,Epoxy,,COMP_007309,,,Composite,,,Epoxy+SiC_whisker,Epoxy matrix with 30% SiC_whisker,,,,
Systematic_Generation,,,Epoxy_SiC_whisker_40vol,,,,0.4,,,,SiC_whisker,Epoxy,,COMP_007310,,,Composite,,,Epoxy+SiC_whisker,Epoxy matrix with 40% SiC_whisker,,,,
Systematic_Generation,,,Epoxy_SiC_whisker_50vol,,,,0.5,,,,SiC_whisker,Epoxy,,COMP_007311,,,Composite,,,Epoxy+SiC_whisker,Epoxy matrix with 50% SiC_whisker,,,,
Systematic_Generation,,,Epoxy_SiC_whisker_60vol,,,,0.6,,,,SiC_whisker,Epoxy,,COMP_007312,,,Composite,,,Epoxy+SiC_whisker,Epoxy matrix with 60% SiC_whisker,,,,
Systematic_Generation,,,Epoxy_Al2O3_whisker_1vol,,,,0.01,,,,Al2O3_whisker,Epoxy,,COMP_007313,,,Composite,,,Epoxy+Al2O3_whisker,Epoxy matrix with 1% Al2O3_whisker,,,,
Systematic_Generation,,,Epoxy_Al2O3_whisker_2vol,,,,0.02,,,,Al2O3_whisker,Epoxy,,COMP_007314,,,Composite,,,Epoxy+Al2O3_whisker,Epoxy matrix with 2% Al2O3_whisker,,,,
Systematic_Generation,,,Epoxy_Al2O3_whisker_5vol,,,,0.05,,,,Al2O3_whisker,Epoxy,,COMP_007315,,,Composite,,,Epoxy+Al2O3_whisker,Epoxy matrix with 5% Al2O3_whisker,,,,
Systematic_Generation,,,Epoxy_Al2O3_whisker_10vol,,,,0.1,,,,Al2O3_whisker,Epoxy,,COMP_007316,,,Composite,,,Epoxy+Al2O3_whisker,Epoxy matrix with 10% Al2O3_whisker,,,,
Systematic_Generation,,,Epoxy_Al2O3_whisker_15vol,,,,0.15,,,,Al2O3_whisker,Epoxy,,COMP_007317,,,Composite,,,Epoxy+Al2O3_whisker,Epoxy matrix with 15% Al2O3_whisker,,,,
Systematic_Generation,,,Epoxy_Al2O3_whisker_20vol,,,,0.2,,,,Al2O3_whisker,Epoxy,,COMP_007318,,,Composite,,,Epoxy+Al2O3_whisker,Epoxy matrix with 20% Al2O3_whisker,,,,
Systematic_Generation,,,Epoxy_Al2O3_whisker_25vol,,,,0.25,,,,Al2O3_whisker,Epoxy,,COMP_007319,,,Composite,,,Epoxy+Al2O3_whisker,Epoxy matrix with 25% Al2O3_whisker,,,,
Systematic_Generation,,,Epoxy_Al2O3_whisker_30vol,,,,0.3,,,,Al2O3_whisker,Epoxy,,COMP_007320,,,Composite,,,Epoxy+Al2O3_whisker,Epoxy matrix with 30% Al2O3_whisker,,,,
Systematic_Generation,,,Epoxy_Al2O3_whisker_40vol,,,,0.4,,,,Al2O3_whisker,Epoxy,,COMP_007321,,,Composite,,,Epoxy+Al2O3_whisker,Epoxy matrix with 40% Al2O3_whisker,,,,
Systematic_Generation,,,Epoxy_Al2O3_whisker_50vol,,,,0.5,,,,Al2O3_whisker,Epoxy,,COMP_007322,,,Composite,,,Epoxy+Al2O3_whisker,Epoxy matrix with 50% Al2O3_whisker,,,,
Systematic_Generation,,,Epoxy_Al2O3_whisker_60vol,,,,0.6,,,,Al2O3_whisker,Epoxy,,COMP_007323,,,Composite,,,Epoxy+Al2O3_whisker,Epoxy matrix with 60% Al2O3_whisker,,,,
Systematic_Generation,,,Epoxy_Si3N4_whisker_1vol,,,,0.01,,,,Si3N4_whisker,Epoxy,,COMP_007324,,,Composite,,,Epoxy+Si3N4_whisker,Epoxy matrix with 1% Si3N4_whisker,,,,
Systematic_Generation,,,Epoxy_Si3N4_whisker_2vol,,,,0.02,,,,Si3N4_whisker,Epoxy,,COMP_007325,,,Composite,,,Epoxy+Si3N4_whisker,Epoxy matrix with 2% Si3N4_whisker,,,,
Systematic_Generation,,,Epoxy_Si3N4_whisker_5vol,,,,0.05,,,,Si3N4_whisker,Epoxy,,COMP_007326,,,Composite,,,Epoxy+Si3N4_whisker,Epoxy matrix with 5% Si3N4_whisker,,,,
Systematic_Generation,,,Epoxy_Si3N4_whisker_10vol,,,,0.1,,,,Si3N4_whisker,Epoxy,,COMP_007327,,,Composite,,,Epoxy+Si3N4_whisker,Epoxy matrix with 10% Si3N4_whisker,,,,
Systematic_Generation,,,Epoxy_Si3N4_whisker_15vol,,,,0.15,,,,Si3N4_whisker,Epoxy,,COMP_007328,,,Composite,,,Epoxy+Si3N4_whisker,Epoxy matrix with 15% Si3N4_whisker,,,,
Systematic_Generation,,,Epoxy_Si3N4_whisker_20vol,,,,0.2,,,,Si3N4_whisker,Epoxy,,COMP_007329,,,Composite,,,Epoxy+Si3N4_whisker,Epoxy matrix with 20% Si3N4_whisker,,,,
Systematic_Generation,,,Epoxy_Si3N4_whisker_25vol,,,,0.25,,,,Si3N4_whisker,Epoxy,,COMP_007330,,,Composite,,,Epoxy+Si3N4_whisker,Epoxy matrix with 25% Si3N4_whisker,,,,
Systematic_Generation,,,Epoxy_Si3N4_whisker_30vol,,,,0.3,,,,Si3N4_whisker,Epoxy,,COMP_007331,,,Composite,,,Epoxy+Si3N4_whisker,Epoxy matrix with 30% Si3N4_whisker,,,,
Systematic_Generation,,,Epoxy_Si3N4_whisker_40vol,,,,0.4,,,,Si3N4_whisker,Epoxy,,COMP_007332,,,Composite,,,Epoxy+Si3N4_whisker,Epoxy matrix with 40% Si3N4_whisker,,,,
Systematic_Generation,,,Epoxy_Si3N4_whisker_50vol,,,,0.5,,,,Si3N4_whisker,Epoxy,,COMP_007333,,,Composite,,,Epoxy+Si3N4_whisker,Epoxy matrix with 50% Si3N4_whisker,,,,
Systematic_Generation,,,Epoxy_Si3N4_whisker_60vol,,,,0.6,,,,Si3N4_whisker,Epoxy,,COMP_007334,,,Composite,,,Epoxy+Si3N4_whisker,Epoxy matrix with 60% Si3N4_whisker,,,,
Systematic_Generation,,,PEEK_Carbon_fiber_1vol,,,,0.01,,,,Carbon_fiber,PEEK,,COMP_007335,,,Composite,,,PEEK+Carbon_fiber,PEEK matrix with 1% Carbon_fiber,,,,
Systematic_Generation,,,PEEK_Carbon_fiber_2vol,,,,0.02,,,,Carbon_fiber,PEEK,,COMP_007336,,,Composite,,,PEEK+Carbon_fiber,PEEK matrix with 2% Carbon_fiber,,,,
Systematic_Generation,,,PEEK_Carbon_fiber_5vol,,,,0.05,,,,Carbon_fiber,PEEK,,COMP_007337,,,Composite,,,PEEK+Carbon_fiber,PEEK matrix with 5% Carbon_fiber,,,,
Systematic_Generation,,,PEEK_Carbon_fiber_10vol,,,,0.1,,,,Carbon_fiber,PEEK,,COMP_007338,,,Composite,,,PEEK+Carbon_fiber,PEEK matrix with 10% Carbon_fiber,,,,
Systematic_Generation,,,PEEK_Carbon_fiber_15vol,,,,0.15,,,,Carbon_fiber,PEEK,,COMP_007339,,,Composite,,,PEEK+Carbon_fiber,PEEK matrix with 15% Carbon_fiber,,,,
Systematic_Generation,,,PEEK_Carbon_fiber_20vol,,,,0.2,,,,Carbon_fiber,PEEK,,COMP_007340,,,Composite,,,PEEK+Carbon_fiber,PEEK matrix with 20% Carbon_fiber,,,,
Systematic_Generation,,,PEEK_Carbon_fiber_25vol,,,,0.25,,,,Carbon_fiber,PEEK,,COMP_007341,,,Composite,,,PEEK+Carbon_fiber,PEEK matrix with 25% Carbon_fiber,,,,
Systematic_Generation,,,PEEK_Carbon_fiber_30vol,,,,0.3,,,,Carbon_fiber,PEEK,,COMP_007342,,,Composite,,,PEEK+Carbon_fiber,PEEK matrix with 30% Carbon_fiber,,,,
Systematic_Generation,,,PEEK_Carbon_fiber_40vol,,,,0.4,,,,Carbon_fiber,PEEK,,COMP_007343,,,Composite,,,PEEK+Carbon_fiber,PEEK matrix with 40% Carbon_fiber,,,,
Systematic_Generation,,,PEEK_Carbon_fiber_50vol,,,,0.5,,,,Carbon_fiber,PEEK,,COMP_007344,,,Composite,,,PEEK+Carbon_fiber,PEEK matrix with 50% Carbon_fiber,,,,
Systematic_Generation,,,PEEK_Carbon_fiber_60vol,,,,0.6,,,,Carbon_fiber,PEEK,,COMP_007345,,,Composite,,,PEEK+Carbon_fiber,PEEK matrix with 60% Carbon_fiber,,,,
Systematic_Generation,,,PEEK_Glass_fiber_1vol,,,,0.01,,,,Glass_fiber,PEEK,,COMP_007346,,,Composite,,,PEEK+Glass_fiber,PEEK matrix with 1% Glass_fiber,,,,
Systematic_Generation,,,PEEK_Glass_fiber_2vol,,,,0.02,,,,Glass_fiber,PEEK,,COMP_007347,,,Composite,,,PEEK+Glass_fiber,PEEK matrix with 2% Glass_fiber,,,,
Systematic_Generation,,,PEEK_Glass_fiber_5vol,,,,0.05,,,,Glass_fiber,PEEK,,COMP_007348,,,Composite,,,PEEK+Glass_fiber,PEEK matrix with 5% Glass_fiber,,,,
Systematic_Generation,,,PEEK_Glass_fiber_10vol,,,,0.1,,,,Glass_fiber,PEEK,,COMP_007349,,,Composite,,,PEEK+Glass_fiber,PEEK matrix with 10% Glass_fiber,,,,
Systematic_Generation,,,PEEK_Glass_fiber_15vol,,,,0.15,,,,Glass_fiber,PEEK,,COMP_007350,,,Composite,,,PEEK+Glass_fiber,PEEK matrix with 15% Glass_fiber,,,,
Systematic_Generation,,,PEEK_Glass_fiber_20vol,,,,0.2,,,,Glass_fiber,PEEK,,COMP_007351,,,Composite,,,PEEK+Glass_fiber,PEEK matrix with 20% Glass_fiber,,,,
Systematic_Generation,,,PEEK_Glass_fiber_25vol,,,,0.25,,,,Glass_fiber,PEEK,,COMP_007352,,,Composite,,,PEEK+Glass_fiber,PEEK matrix with 25% Glass_fiber,,,,
Systematic_Generation,,,PEEK_Glass_fiber_30vol,,,,0.3,,,,Glass_fiber,PEEK,,COMP_007353,,,Composite,,,PEEK+Glass_fiber,PEEK matrix with 30% Glass_fiber,,,,
Systematic_Generation,,,PEEK_Glass_fiber_40vol,,,,0.4,,,,Glass_fiber,PEEK,,COMP_007354,,,Composite,,,PEEK+Glass_fiber,PEEK matrix with 40% Glass_fiber,,,,
Systematic_Generation,,,PEEK_Glass_fiber_50vol,,,,0.5,,,,Glass_fiber,PEEK,,COMP_007355,,,Composite,,,PEEK+Glass_fiber,PEEK matrix with 50% Glass_fiber,,,,
Systematic_Generation,,,PEEK_Glass_fiber_60vol,,,,0.6,,,,Glass_fiber,PEEK,,COMP_007356,,,Composite,,,PEEK+Glass_fiber,PEEK matrix with 60% Glass_fiber,,,,
Systematic_Generation,,,PEEK_Aramid_1vol,,,,0.01,,,,Aramid,PEEK,,COMP_007357,,,Composite,,,PEEK+Aramid,PEEK matrix with 1% Aramid,,,,
Systematic_Generation,,,PEEK_Aramid_2vol,,,,0.02,,,,Aramid,PEEK,,COMP_007358,,,Composite,,,PEEK+Aramid,PEEK matrix with 2% Aramid,,,,
Systematic_Generation,,,PEEK_Aramid_5vol,,,,0.05,,,,Aramid,PEEK,,COMP_007359,,,Composite,,,PEEK+Aramid,PEEK matrix with 5% Aramid,,,,
Systematic_Generation,,,PEEK_Aramid_10vol,,,,0.1,,,,Aramid,PEEK,,COMP_007360,,,Composite,,,PEEK+Aramid,PEEK matrix with 10% Aramid,,,,
Systematic_Generation,,,PEEK_Aramid_15vol,,,,0.15,,,,Aramid,PEEK,,COMP_007361,,,Composite,,,PEEK+Aramid,PEEK matrix with 15% Aramid,,,,
Systematic_Generation,,,PEEK_Aramid_20vol,,,,0.2,,,,Aramid,PEEK,,COMP_007362,,,Composite,,,PEEK+Aramid,PEEK matrix with 20% Aramid,,,,
Systematic_Generation,,,PEEK_Aramid_25vol,,,,0.25,,,,Aramid,PEEK,,COMP_007363,,,Composite,,,PEEK+Aramid,PEEK matrix with 25% Aramid,,,,
Systematic_Generation,,,PEEK_Aramid_30vol,,,,0.3,,,,Aramid,PEEK,,COMP_007364,,,Composite,,,PEEK+Aramid,PEEK matrix with 30% Aramid,,,,
Systematic_Generation,,,PEEK_Aramid_40vol,,,,0.4,,,,Aramid,PEEK,,COMP_007365,,,Composite,,,PEEK+Aramid,PEEK matrix with 40% Aramid,,,,
Systematic_Generation,,,PEEK_Aramid_50vol,,,,0.5,,,,Aramid,PEEK,,COMP_007366,,,Composite,,,PEEK+Aramid,PEEK matrix with 50% Aramid,,,,
Systematic_Generation,,,PEEK_Aramid_60vol,,,,0.6,,,,Aramid,PEEK,,COMP_007367,,,Composite,,,PEEK+Aramid,PEEK matrix with 60% Aramid,,,,
Systematic_Generation,,,PEEK_Basalt_1vol,,,,0.01,,,,Basalt,PEEK,,COMP_007368,,,Composite,,,PEEK+Basalt,PEEK matrix with 1% Basalt,,,,
Systematic_Generation,,,PEEK_Basalt_2vol,,,,0.02,,,,Basalt,PEEK,,COMP_007369,,,Composite,,,PEEK+Basalt,PEEK matrix with 2% Basalt,,,,
Systematic_Generation,,,PEEK_Basalt_5vol,,,,0.05,,,,Basalt,PEEK,,COMP_007370,,,Composite,,,PEEK+Basalt,PEEK matrix with 5% Basalt,,,,
Systematic_Generation,,,PEEK_Basalt_10vol,,,,0.1,,,,Basalt,PEEK,,COMP_007371,,,Composite,,,PEEK+Basalt,PEEK matrix with 10% Basalt,,,,
Systematic_Generation,,,PEEK_Basalt_15vol,,,,0.15,,,,Basalt,PEEK,,COMP_007372,,,Composite,,,PEEK+Basalt,PEEK matrix with 15% Basalt,,,,
Systematic_Generation,,,PEEK_Basalt_20vol,,,,0.2,,,,Basalt,PEEK,,COMP_007373,,,Composite,,,PEEK+Basalt,PEEK matrix with 20% Basalt,,,,