source,n_elements,doping_concentration,name,termination,space_group,doping_level,volume_fraction,weight_percent,lattice_c,temperature,reinforcement,matrix,layers,material_id,molecular_weight,deposition_method,type,lattice_b,pdi,formula,composition,lattice_a,thickness_nm,dopant,substrate
Systematic_Generation,,,PAN_Mn300k_PDI2.5,,,,,,,,,,,POLY_006478,300000,,Homopolymer,,2.5,{[]CC(C#N)[]},PAN,,,,
Systematic_Generation,,,PAN_Mn500k_PDI1.05,,,,,,,,,,,POLY_006479,500000,,Homopolymer,,1.05,{[]CC(C#N)[]},PAN,,,,
Systematic_Generation,,,PAN_Mn500k_PDI1.1,,,,,,,,,,,POLY_006480,500000,,Homopolymer,,1.1,{[]CC(C#N)[]},PAN,,,,
Systematic_Generation,,,PAN_Mn500k_PDI1.2,,,,,,,,,,,POLY_006481,500000,,Homopolymer,,1.2,{[]CC(C#N)[]},PAN,,,,
Systematic_Generation,,,PAN_Mn500k_PDI1.5,,,,,,,,,,,POLY_006482,500000,,Homopolymer,,1.5,{[]CC(C#N)[]},PAN,,,,
Systematic_Generation,,,PAN_Mn500k_PDI2.0,,,,,,,,,,,POLY_006483,500000,,Homopolymer,,2.0,{[]CC(C#N)[]},PAN,,,,
Systematic_Generation,,,PAN_Mn500k_PDI2.5,,,,,,,,,,,POLY_006484,500000,,Homopolymer,,2.5,{[]CC(C#N)[]},PAN,,,,
Systematic_Generation,,,PAN_Mn750k_PDI1.05,,,,,,,,,,,POLY_006485,750000,,Homopolymer,,1.05,{[]CC(C#N)[]},PAN,,,,
Systematic_Generation,,,PAN_Mn750k_PDI1.1,,,,,,,,,,,POLY_006486,750000,,Homopolymer,,1.1,{[]CC(C#N)[]},PAN,,,,
Systematic_Generation,,,PAN_Mn750k_PDI1.2,,,,,,,,,,,POLY_006487,750000,,Homopolymer,,1.2,{[]CC(C#N)[]},PAN,,,,
Systematic_Generation,,,PAN_Mn750k_PDI1.5,,,,,,,,,,,POLY_006488,750000,,Homopolymer,,1.5,{[]CC(C#N)[]},PAN,,,,
Systematic_Generation,,,PAN_Mn750k_PDI2.0,,,,,,,,,,,POLY_006489,750000,,Homopolymer,,2.0,{[]CC(C#N)[]},PAN,,,,
Systematic_Generation,,,PAN_Mn750k_PDI2.5,,,,,,,,,,,POLY_006490,750000,,Homopolymer,,2.5,{[]CC(C#N)[]},PAN,,,,
Systematic_Generation,,,PAN_Mn1000k_PDI1.05,,,,,,,,,,,POLY_006491,1000000,,Homopolymer,,1.05,{[]CC(C#N)[]},PAN,,,,
Systematic_Generation,,,PAN_Mn1000k_PDI1.1,,,,,,,,,,,POLY_006492,1000000,,Homopolymer,,1.1,{[]CC(C#N)[]},PAN,,,,
Systematic_Generation,,,PAN_Mn1000k_PDI1.2,,,,,,,,,,,POLY_006493,1000000,,Homopolymer,,1.2,{[]CC(C#N)[]},PAN,,,,
Systematic_Generation,,,PAN_Mn1000k_PDI1.5,,,,,,,,,,,POLY_006494,1000000,,Homopolymer,,1.5,{[]CC(C#N)[]},PAN,,,,
Systematic_Generation,,,PAN_Mn1000k_PDI2.0,,,,,,,,,,,POLY_006495,1000000,,Homopolymer,,2.0,{[]CC(C#N)[]},PAN,,,,
Systematic_Generation,,,PAN_Mn1000k_PDI2.5,,,,,,,,,,,POLY_006496,1000000,,Homopolymer,,2.5,{[]CC(C#N)[]},PAN,,,,
Systematic_Generation,,,PC_Mn5k_PDI1.05,,,,,,,,,,,POLY_006497,5000,,Homopolymer,,1.05,{[]OC(c1ccc(C(C)(C)c2ccc(O)cc2)cc1)(C)C[]},PC,,,,
Systematic_Generation,,,PC_Mn5k_PDI1.1,,,,,,,,,,,POLY_006498,5000,,Homopolymer,,1.1,{[]OC(c1ccc(C(C)(C)c2ccc(O)cc2)cc1)(C)C[]},PC,,,,
Systematic_Generation,,,PC_Mn5k_PDI1.2,,,,,,,,,,,POLY_006499,5000,,Homopolymer,,1.2,{[]OC(c1ccc(C(C)(C)c2ccc(O)cc2)cc1)(C)C[]},PC,,,,
Systematic_Generation,,,PC_Mn5k_PDI1.5,,,,,,,,,,,POLY_006500,5000,,Homopolymer,,1.5,{[]OC(c1ccc(C(C)(C)c2ccc(O)cc2)cc1)(C)C[]},PC,,,,
Systematic_Generation,,,PC_Mn5k_PDI2.0,,,,,,,,,,,POLY_006501,5000,,Homopolymer,,2.0,{[]OC(c1ccc(C(C)(C)c2ccc(O)cc2)cc1)(C)C[]},PC,,,,
Systematic_Generation,,,PC_Mn5k_PDI2.5,,,,,,,,,,,POLY_006502,5000,,Homopolymer,,2.5,{[]OC(c1ccc(C(C)(C)c2ccc(O)cc2)cc1)(C)C[]},PC,,,,
Systematic_Generation,,,PC_Mn10k_PDI1.05,,,,,,,,,,,POLY_006503,10000,,Homopolymer,,1.05,{[]OC(c1ccc(C(C)(C)c2ccc(O)cc2)cc1)(C)C[]},PC,,,,
Systematic_Generation,,,PC_Mn10k_PDI1.1,,,,,,,,,,,POLY_006504,10000,,Homopolymer,,1.1,{[]OC(c1ccc(C(C)(C)c2ccc(O)cc2)cc1)(C)C[]},PC,,,,
Systematic_Generation,,,PC_Mn10k_PDI1.2,,,,,,,,,,,POLY_006505,10000,,Homopolymer,,1.2,{[]OC(c1ccc(C(C)(C)c2ccc(O)cc2)cc1)(C)C[]},PC,,,,
Systematic_Generation,,,PC_Mn10k_PDI1.5,,,,,,,,,,,POLY_006506,10000,,Homopolymer,,1.5,{[]OC(c1ccc(C(C)(C)c2ccc(O)cc2)cc1)(C)C[]},PC,,,,
Systematic_Generation,,,PC_Mn10k_PDI2.0,,,,,,,,,,,POLY_006507,10000,,Homopolymer,,2.0,{[]OC(c1ccc(C(C)(C)c2ccc(O)cc2)cc1)(C)C[]},PC,,,,
Systematic_Generation,,,PC_Mn10k_PDI2.5,,,,,,,,,,,POLY_006508,10000,,Homopolymer,,2.5,{[]OC(c1ccc(C(C)(C)c2ccc(O)cc2)cc1)(C)C[]},PC,,,,
Systematic_Generation,,,PC_Mn25k_PDI1.05,,,,,,,,,,,POLY_006509,25000,,Homopolymer,,1.05,{[]OC(c1ccc(C(C)(C)c2ccc(O)cc2)cc1)(C)C[]},PC,,,,
Systematic_Generation,,,PC_Mn25k_PDI1.1,,,,,,,,,,,POLY_006510,25000,,Homopolymer,,1.1,{[]OC(c1ccc(C(C)(C)c2ccc(O)cc2)cc1)(C)C[]},PC,,,,
Systematic_Generation,,,PC_Mn25k_PDI1.2,,,,,,,,,,,POLY_006511,25000,,Homopolymer,,1.2,{[]OC(c1ccc(C(C)(C)c2ccc(O)cc2)cc1)(C)C[]},PC,,,,
Systematic_Generation,,,PC_Mn25k_PDI1.5,,,,,,,,,,,POLY_006512,25000,,Homopolymer,,1.5,{[]OC(c1ccc(C(C)(C)c2ccc(O)cc2)cc1)(C)C[]},PC,,,,
Systematic_Generation,,,PC_Mn25k_PDI2.0,,,,,,,,,,,POLY_006513,25000,,Homopolymer,,2.0,{[]OC(c1ccc(C(C)(C)c2ccc(O)cc2)cc1)(C)C[]},PC,,,,
Systematic_Generation,,,PC_Mn25k_PDI2.5,,,,,,,,,,,POLY_006514,25000,,Homopolymer,,2.5,{[]OC(c1ccc(C(C)(C)c2ccc(O)cc2)cc1)(C)C[]},PC,,,,
Systematic_Generation,,,PC_Mn50k_PDI1.05,,,,,,,,,,,POLY_006515,50000,,Homopolymer,,1.05,{[]OC(c1ccc(C(C)(C)c2ccc(O)cc2)cc1)(C)C[]},PC,,,,
Systematic_Generation,,,PC_Mn50k_PDI1.1,,,,,,,,,,,POLY_006516,50000,,Homopolymer,,1.1,{[]OC(c1ccc(C(C)(C)c2ccc(O)cc2)cc1)(C)C[]},PC,,,,
Systematic_Generation,,,PC_Mn50k_PDI1.2,,,,,,,,,,,POLY_006517,50000,,Homopolymer,,1.2,{[]OC(c1ccc(C(C)(C)c2ccc(O)cc2)cc1)(C)C[]},PC,,,,
Systematic_Generation,,,PC_Mn50k_PDI1.5,,,,,,,,,,,POLY_006518,50000,,Homopolymer,,1.5,{[]OC(c1ccc(C(C)(C)c2ccc(O)cc2)cc1)(C)C[]},PC,,,,
Systematic_Generation,,,PC_Mn50k_PDI2.0,,,,,,,,,,,POLY_006519,50000,,Homopolymer,,2.0,{[]OC(c1ccc(C(C)(C)c2ccc(O)cc2)cc1)(C)C[]},PC,,,,
Systematic_Generation,,,PC_Mn50k_PDI2.5,,,,,,,,,,,POLY_006520,50000,,Homopolymer,,2.5,{[]OC(c1ccc(C(C)(C)c2ccc(O)cc2)cc1)(C)C[]},PC,,,,
Systematic_Generation,,,PC_Mn75k_PDI1.05,,,,,,,,,,,POLY_006521,75000,,Homopolymer,,1.05,{[]OC(c1ccc(C(C)(C)c2ccc(O)cc2)cc1)(C)C[]},PC,,,,
Systematic_Generation,,,PC_Mn75k_PDI1.1,,,,,,,,,,,POLY_006522,75000,,Homopolymer,,1.1,{[]OC(c1ccc(C(C)(C)c2ccc(O)cc2)cc1)(C)C[]},PC,,,,
Systematic_Generation,,,PC_Mn75k_PDI1.2,,,,,,,,,,,POLY_006523,75000,,Homopolymer,,1.2,{[]OC(c1ccc(C(C)(C)c2ccc(O)cc2)cc1)(C)C[]},PC,,,,
Systematic_Generation,,,PC_Mn75k_PDI1.5,,,,,,,,,,,POLY_006524,75000,,Homopolymer,,1.5,{[]OC(c1ccc(C(C)(C)c2ccc(O)cc2)cc1)(C)C[]},PC,,,,
Systematic_Generation,,,PC_Mn75k_PDI2.0,,,,,,,,,,,POLY_006525,75000,,Homopolymer,,2.0,{[]OC(c1ccc(C(C)(C)c2ccc(O)cc2)cc1)(C)C[]},PC,,,,
Systematic_Generation,,,PC_Mn75k_PDI2.5,,,,,,,,,,,POLY_006526,75000,,Homopolymer,,2.5,{[]OC(c1ccc(C(C)(C)c2ccc(O)cc2)cc1)(C)C[]},PC,,,,
Systematic_Generation,,,PC_Mn100k_PDI1.05,,,,,,,,,,,POLY_006527,100000,,Homopolymer,,1.05,{[]OC(c1ccc(C(C)(C)c2ccc(O)cc2)cc1)(C)C[]},PC,,,,
Systematic_Generation,,,PC_Mn100k_PDI1.1,,,,,,,,,,,POLY_006528,100000,,Homopolymer,,1.1,{[]OC(c1ccc(C(C)(C)c2ccc(O)cc2)cc1)(C)C[]},PC,,,,
Systematic_Generation,,,PC_Mn100k_PDI1.2,,,,,,,,,,,POLY_006529,100000,,Homopolymer,,1.2,{[]OC(c1ccc(C(C)(C)c2ccc(O)cc2)cc1)(C)C[]},PC,,,,
Systematic_Generation,,,PC_Mn100k_PDI1.5,,,,,,,,,,,POLY_006530,100000,,Homopolymer,,1.5,{[]OC(c1ccc(C(C)(C)c2ccc(O)cc2)cc1)(C)C[]},PC,,,,
Systematic_Generation,,,PC_Mn100k_PDI2.0,,,,,,,,,,,POLY_006531,100000,,Homopolymer,,2.0,{[]OC(c1ccc(C(C)(C)c2ccc(O)cc2)cc1)(C)C[]},PC,,,,
Systematic_Generation,,,PC_Mn100k_PDI2.5,,,,,,,,,,,POLY_006532,100000,,Homopolymer,,2.5,{[]OC(c1ccc(C(C)(C)c2ccc(O)cc2)cc1)(C)C[]},PC,,,,
Systematic_Generation,,,PC_Mn150k_PDI1.05,,,,,,,,,,,POLY_006533,150000,,Homopolymer,,1.05,{[]OC(c1ccc(C(C)(C)c2ccc(O)cc2)cc1)(C)C[]},PC,,,,
Systematic_Generation,,,PC_Mn150k_PDI1.1,,,,,,,,,,,POLY_006534,150000,,Homopolymer,,1.1,{[]OC(c1ccc(C(C)(C)c2ccc(O)cc2)cc1)(C)C[]},PC,,,,
Systematic_Generation,,,PC_Mn150k_PDI1.2,,,,,,,,,,,POLY_006535,150000,,Homopolymer,,1.2,{[]OC(c1ccc(C(C)(C)c2ccc(O)cc2)cc1)(C)C[]},PC,,,,
Systematic_Generation,,,PC_Mn150k_PDI1.5,,,,,,,,,,,POLY_006536,150000,,Homopolymer,,1.5,{[]OC(c1ccc(C(C)(C)c2ccc(O)cc2)cc1)(C)C[]},PC,,,,
Systematic_Generation,,,PC_Mn150k_PDI2.0,,,,,,,,,,,POLY_006537,150000,,Homopolymer,,2.0,{[]OC(c1ccc(C(C)(C)c2ccc(O)cc2)cc1)(C)C[]},PC,,,,
Systematic_Generation,,,PC_Mn150k_PDI2.5,,,,,,,,,,,POLY_006538,150000,,Homopolymer,,2.5,{[]OC(c1ccc(C(C)(C)c2ccc(O)cc2)cc1)(C)C[]},PC,,,,
Systematic_Generation,,,PC_Mn200k_PDI1.05,,,,,,,,,,,POLY_006539,200000,,Homopolymer,,1.05,{[]OC(c1ccc(C(C)(C)c2ccc(O)cc2)cc1)(C)C[]},PC,,,,
Systematic_Generation,,,PC_Mn200k_PDI1.1,,,,,,,,,,,POLY_006540,200000,,Homopolymer,,1.1,{[]OC(c1ccc(C(C)(C)c2ccc(O)cc2)cc1)(C)C[]},PC,,,,
Systematic_Generation,,,PC_Mn200k_PDI1.2,,,,,,,,,,,POLY_006541,200000,,Homopolymer,,1.2,{[]OC(c1ccc(C(C)(C)c2ccc(O)cc2)cc1)(C)C[]},PC,,,,
Systematic_Generation,,,PC_Mn200k_PDI1.5,,,,,,,,,,,POLY_006542,200000,,Homopolymer,,1.5,{[]OC(c1ccc(C(C)(C)c2ccc(O)cc2)cc1)(C)C[]},PC,,,,
Systematic_Generation,,,PC_Mn200k_PDI2.0,,,,,,,,,,,POLY_006543,200000,,Homopolymer,,2.0,{[]OC(c1ccc(C(C)(C)c2ccc(O)cc2)cc1)(C)C[]},PC,,,,
Systematic_Generation,,,PC_Mn200k_PDI2.5,,,,,,,,,,,POLY_006544,200000,,Homopolymer,,2.5,{[]OC(c1ccc(C(C)(C)c2ccc(O)cc2)cc1)(C)C[]},PC,,,,
Systematic_Generation,,,PC_Mn300k_PDI1.05,,,,,,,,,,,POLY_006545,300000,,Homopolymer,,1.05,{[]OC(c1ccc(C(C)(C)c2ccc(O)cc2)cc1)(C)C[]},PC,,,,
Systematic_Generation,,,PC_Mn300k_PDI1.1,,,,,,,,,,,POLY_006546,300000,,Homopolymer,,1.1,{[]OC(c1ccc(C(C)(C)c2ccc(O)cc2)cc1)(C)C[]},PC,,,,
Systematic_Generation,,,PC_Mn300k_PDI1.2,,,,,,,,,,,POLY_006547,300000,,Homopolymer,,1.2,{[]OC(c1ccc(C(C)(C)c2ccc(O)cc2)cc1)(C)C[]},PC,,,,
Systematic_Generation,,,PC_Mn300k_PDI1.5,,,,,,,,,,,POLY_006548,300000,,Homopolymer,,1.5,{[]OC(c1ccc(C(C)(C)c2ccc(O)cc2)cc1)(C)C[]},PC,,,,
Systematic_Generation,,,PC_Mn300k_PDI2.0,,,,,,,,,,,POLY_006549,300000,,Homopolymer,,2.0,{[]OC(c1ccc(C(C)(C)c2ccc(O)cc2)cc1)(C)C[]},PC,,,,
Systematic_Generation,,,PC_Mn300k_PDI2.5,,,,,,,,,,,POLY_006550,300000,,Homopolymer,,2.5,{[]OC(c1ccc(C(C)(C)c2ccc(O)cc2)cc1)(C)C[]},PC,,,,
Systematic_Generation,,,PC_Mn500k_PDI1.05,,,,,,,,,,,POLY_006551,500000,,Homopolymer,,1.05,{[]OC(c1ccc(C(C)(C)c2ccc(O)cc2)cc1)(C)C[]},PC,,,,
Systematic_Generation,,,PC_Mn500k_PDI1.1,,,,,,,,,,,POLY_006552,500000,,Homopolymer,,1.1,{[]OC(c1ccc(C(C)(C)c2ccc(O)cc2)cc1)(C)C[]},PC,,,,
Systematic_Generation,,,PC_Mn500k_PDI1.2,,,,,,,,,,,POLY_006553,500000,,Homopolymer,,1.2,{[]OC(c1ccc(C(C)(C)c2ccc(O)cc2)cc1)(C)C[]},PC,,,,
Systematic_Generation,,,PC_Mn500k_PDI1.5,,,,,,,,,,,POLY_006554,500000,,Homopolymer,,1.5,{[]OC(c1ccc(C(C)(C)c2ccc(O)cc2)cc1)(C)C[]},PC,,,,
Systematic_Generation,,,PC_Mn500k_PDI2.0,,,,,,,,,,,POLY_006555,500000,,Homopolymer,,2.0,{[]OC(c1ccc(C(C)(C)c2ccc(O)cc2)cc1)(C)C[]},PC,,,,
Systematic_Generation,,,PC_Mn500k_PDI2.5,,,,,,,,,,,POLY_006556,500000,,Homopolymer,,2.5,{[]OC(c1ccc(C(C)(C)c2ccc(O)cc2)cc1)(C)C[]},PC,,,,
Systematic_Generation,,,PC_Mn750k_PDI1.05,,,,,,,,,,,POLY_006557,750000,,Homopolymer,,1.05,{[]OC(c1ccc(C(C)(C)c2ccc(O)cc2)cc1)(C)C[]},PC,,,,
Systematic_Generation,,,PC_Mn750k_PDI1.1,,,,,,,,,,,POLY_006558,750000,,Homopolymer,,1.1,{[]OC(c1ccc(C(C)(C)c2ccc(O)cc2)cc1)(C)C[]},PC,,,,
Systematic_Generation,,,PC_Mn750k_PDI1.2,,,,,,,,,,,POLY_006559,750000,,Homopolymer,,1.2,{[]OC(c1ccc(C(C)(C)c2ccc(O)cc2)cc1)(C)C[]},PC,,,,
Systematic_Generation,,,PC_Mn750k_PDI1.5,,,,,,,,,,,POLY_006560,750000,,Homopolymer,,1.5,{[]OC(c1ccc(C(C)(C)c2ccc(O)cc2)cc1)(C)C[]},PC,,,,
Systematic_Generation,,,PC_Mn750k_PDI2.0,,,,,,,,,,,POLY_006561,750000,,Homopolymer,,2.0,{[]OC(c1ccc(C(C)(C)c2ccc(O)cc2)cc1)(C)C[]},PC,,,,
Systematic_Generation,,,PC_Mn750k_PDI2.5,,,,,,,,,,,POLY_006562,750000,,Homopolymer,,2.5,{[]OC(c1ccc(C(C)(C)c2ccc(O)cc2)cc1)(C)C[]},PC,,,,
Systematic_Generation,,,PC_Mn1000k_PDI1.05,,,,,,,,,,,POLY_006563,1000000,,Homopolymer,,1.05,{[]OC(c1ccc(C(C)(C)c2ccc(O)cc2)cc1)(C)C[]},PC,,,,
Systematic_Generation,,,PC_Mn1000k_PDI1.1,,,,,,,,,,,POLY_006564,1000000,,Homopolymer,,1.1,{[]OC(c1ccc(C(C)(C)c2ccc(O)cc2)cc1)(C)C[]},PC,,,,
Systematic_Generation,,,PC_Mn1000k_PDI1.2,,,,,,,,,,,POLY_006565,1000000,,Homopolymer,,1.2,{[]OC(c1ccc(C(C)(C)c2ccc(O)cc2)cc1)(C)C[]},PC,,,,
Systematic_Generation,,,PC_Mn1000k_PDI1.5,,,,,,,,,,,POLY_006566,1000000,,Homopolymer,,1.5,{[]OC(c1ccc(C(C)(C)c2ccc(O)cc2)cc1)(C)C[]},PC,,,,
Systematic_Generation,,,PC_Mn1000k_PDI2.0,,,,,,,,,,,POLY_006567,1000000,,Homopolymer,,2.0,{[]OC(c1ccc(C(C)(C)c2ccc(O)cc2)cc1)(C)C[]},PC,,,,
Systematic_Generation,,,PC_Mn1000k_PDI2.5,,,,,,,,,,,POLY_006568,1000000,,Homopolymer,,2.5,{[]OC(c1ccc(C(C)(C)c2ccc(O)cc2)cc1)(C)C[]},PC,,,,
Systematic_Generation,,,PTFE_Mn5k_PDI1.05,,,,,,,,,,,POLY_006569,5000,,Homopolymer,,1.05,{[]C(F)(F)C(F)(F)[]},PTFE,,,,
Systematic_Generation,,,PTFE_Mn5k_PDI1.1,,,,,,,,,,,POLY_006570,5000,,Homopolymer,,1.1,{[]C(F)(F)C(F)(F)[]},PTFE,,,,
Systematic_Generation,,,PTFE_Mn5k_PDI1.2,,,,,,,,,,,POLY_006571,5000,,Homopolymer,,1.2,{[]C(F)(F)C(F)(F)[]},PTFE,,,,
Systematic_Generation,,,PTFE_Mn5k_PDI1.5,,,,,,,,,,,POLY_006572,5000,,Homopolymer,,1.5,{[]C(F)(F)C(F)(F)[]},PTFE,,,,
Systematic_Generation,,,PTFE_Mn5k_PDI2.0,,,,,,,,,,,POLY_006573,5000,,Homopolymer,,2.0,{[]C(F)(F)C(F)(F)[]},PTFE,,,,
Systematic_Generation,,,PTFE_Mn5k_PDI2.5,,,,,,,,,,,POLY_006574,5000,,Homopolymer,,2.5,{[]C(F)(F)C(F)(F)[]},PTFE,,,,
Systematic_Generation,,,PTFE_Mn10k_PDI1.05,,,,,,,,,,,POLY_006575,10000,,Homopolymer,,1.05,{[]C(F)(F)C(F)(F)[]},PTFE,,,,
Systematic_Generation,,,PTFE_Mn10k_PDI1.1,,,,,,,,,,,POLY_006576,10000,,Homopolymer,,1.1,{[]C(F)(F)C(F)(F)[]},PTFE,,,,
Systematic_Generation,,,PTFE_Mn10k_PDI1.2,,,,,,,,,,,POLY_006577,10000,,Homopolymer,,1.2,{[]C(F)(F)C(F)(F)[]},PTFE,,,,
Systematic_Generation,,,PTFE_Mn10k_PDI1.5,,,,,,,,,,,POLY_006578,10000,,Homopolymer,,1.5,{[]C(F)(F)C(F)(F)[]},PTFE,,,,
Systematic_Generation,,,PTFE_Mn10k_PDI2.0,,,,,,,,,,,POLY_006579,10000,,Homopolymer,,2.0,{[]C(F)(F)C(F)(F)[]},PTFE,,,,
Systematic_Generation,,,PTFE_Mn10k_PDI2.5,,,,,,,,,,,POLY_006580,10000,,Homopolymer,,2.5,{[]C(F)(F)C(F)(F)[]},PTFE,,,,
Systematic_Generation,,,PTFE_Mn25k_PDI1.05,,,,,,,,,,,POLY_006581,25000,,Homopolymer,,1.05,{[]C(F)(F)C(F)(F)[]},PTFE,,,,
Systematic_Generation,,,PTFE_Mn25k_PDI1.1,,,,,,,,,,,POLY_006582,25000,,Homopolymer,,1.1,{[]C(F)(F)C(F)(F)[]},PTFE,,,,
Systematic_Generation,,,PTFE_Mn25k_PDI1.2,,,,,,,,,,,POLY_006583,25000,,Homopolymer,,1.2,{[]C(F)(F)C(F)(F)[]},PTFE,,,,
Systematic_Generation,,,PTFE_Mn25k_PDI1.5,,,,,,,,,,,POLY_006584,25000,,Homopolymer,,1.5,{[]C(F)(F)C(F)(F)[]},PTFE,,,,
Systematic_Generation,,,PTFE_Mn25k_PDI2.0,,,,,,,,,,,POLY_006585,25000,,Homopolymer,,2.0,{[]C(F)(F)C(F)(F)[]},PTFE,,,,
Systematic_Generation,,,PTFE_Mn25k_PDI2.5,,,,,,,,,,,POLY_006586,25000,,Homopolymer,,2.5,{[]C(F)(F)C(F)(F)[]},PTFE,,,,
Systematic_Generation,,,PTFE_Mn50k_PDI1.05,,,,,,,,,,,POLY_006587,50000,,Homopolymer,,1.05,{[]C(F)(F)C(F)(F)[]},PTFE,,,,
Systematic_Generation,,,PTFE_Mn50k_PDI1.1,,,,,,,,,,,POLY_006588,50000,,Homopolymer,,1.1,{[]C(F)(F)C(F)(F)[]},PTFE,,,,
Systematic_Generation,,,PTFE_Mn50k_PDI1.2,,,,,,,,,,,POLY_006589,50000,,Homopolymer,,1.2,{[]C(F)(F)C(F)(F)[]},PTFE,,,,
Systematic_Generation,,,PTFE_Mn50k_PDI1.5,,,,,,,,,,,POLY_006590,50000,,Homopolymer,,1.5,{[]C(F)(F)C(F)(F)[]},PTFE,,,,
Systematic_Generation,,,PTFE_Mn50k_PDI2.0,,,,,,,,,,,POLY_006591,50000,,Homopolymer,,2.0,{[]C(F)(F)C(F)(F)[]},PTFE,,,,
Systematic_Generation,,,PTFE_Mn50k_PDI2.5,,,,,,,,,,,POLY_006592,50000,,Homopolymer,,2.5,{[]C(F)(F)C(F)(F)[]},PTFE,,,,
Systematic_Generation,,,PTFE_Mn75k_PDI1.05,,,,,,,,,,,POLY_006593,75000,,Homopolymer,,1.05,{[]C(F)(F)C(F)(F)[]},PTFE,,,,
Systematic_Generation,,,PTFE_Mn75k_PDI1.1,,,,,,,,,,,POLY_006594,75000,,Homopolymer,,1.1,{[]C(F)(F)C(F)(F)[]},PTFE,,,,
Systematic_Generation,,,PTFE_Mn75k_PDI1.2,,,,,,,,,,,POLY_006595,75000,,Homopolymer,,1.2,{[]C(F)(F)C(F)(F)[]},PTFE,,,,
Systematic_Generation,,,PTFE_Mn75k_PDI1.5,,,,,,,,,,,POLY_006596,75000,,Homopolymer,,1.5,{[]C(F)(F)C(F)(F)[]},PTFE,,,,
Systematic_Generation,,,PTFE_Mn75k_PDI2.0,,,,,,,,,,,POLY_006597,75000,,Homopolymer,,2.0,{[]C(F)(F)C(F)(F)[]},PTFE,,,,
Systematic_Generation,,,PTFE_Mn75k_PDI2.5,,,,,,,,,,,POLY_006598,75000,,Homopolymer,,2.5,{[]C(F)(F)C(F)(F)[]},PTFE,,,,
Systematic_Generation,,,PTFE_Mn100k_PDI1.05,,,,,,,,,,,POLY_006599,100000,,Homopolymer,,1.05,{[]C(F)(F)C(F)(F)[]},PTFE,,,,
Systematic_Generation,,,PTFE_Mn100k_PDI1.1,,,,,,,,,,,POLY_006600,100000,,Homopolymer,,1.1,{[]C(F)(F)C(F)(F)[]},PTFE,,,,
Systematic_Generation,,,PTFE_Mn100k_PDI1.2,,,,,,,,,,,POLY_006601,100000,,Homopolymer,,1.2,{[]C(F)(F)C(F)(F)[]},PTFE,,,,
Systematic_Generation,,,PTFE_Mn100k_PDI1.5,,,,,,,,,,,POLY_006602,100000,,Homopolymer,,1.5,{[]C(F)(F)C(F)(F)[]},PTFE,,,,
Systematic_Generation,,,PTFE_Mn100k_PDI2.0,,,,,,,,,,,POLY_006603,100000,,Homopolymer,,2.0,{[]C(F)(F)C(F)(F)[]},PTFE,,,,
Systematic_Generation,,,PTFE_Mn100k_PDI2.5,,,,,,,,,,,POLY_006604,100000,,Homopolymer,,2.5,{[]C(F)(F)C(F)(F)[]},PTFE,,,,
Systematic_Generation,,,PTFE_Mn150k_PDI1.05,,,,,,,,,,,POLY_006605,150000,,Homopolymer,,1.05,{[]C(F)(F)C(F)(F)[]},PTFE,,,,
Systematic_Generation,,,PTFE_Mn150k_PDI1.1,,,,,,,,,,,POLY_006606,150000,,Homopolymer,,1.1,{[]C(F)(F)C(F)(F)[]},PTFE,,,,
Systematic_Generation,,,PTFE_Mn150k_PDI1.2,,,,,,,,,,,POLY_006607,150000,,Homopolymer,,1.2,{[]C(F)(F)C(F)(F)[]},PTFE,,,,
Systematic_Generation,,,PTFE_Mn150k_PDI1.5,,,,,,,,,,,POLY_006608,150000,,Homopolymer,,1.5,{[]C(F)(F)C(F)(F)[]},PTFE,,,,
Systematic_Generation,,,PTFE_Mn150k_PDI2.0,,,,,,,,,,,POLY_006609,150000,,Homopolymer,,2.0,{[]C(F)(F)C(F)(F)[]},PTFE,,,,
Systematic_Generation,,,PTFE_Mn150k_PDI2.5,,,,,,,,,,,POLY_006610,150000,,Homopolymer,,2.5,{[]C(F)(F)C(F)(F)[]},PTFE,,,,
Systematic_Generation,,,PTFE_Mn200k_PDI1.05,,,,,,,,,,,POLY_006611,200000,,Homopolymer,,1.05,{[]C(F)(F)C(F)(F)[]},PTFE,,,,
Systematic_Generation,,,PTFE_Mn200k_PDI1.1,,,,,,,,,,,POLY_006612,200000,,Homopolymer,,1.1,{[]C(F)(F)C(F)(F)[]},PTFE,,,,
Systematic_Generation,,,PTFE_Mn200k_PDI1.2,,,,,,,,,,,POLY_006613,200000,,Homopolymer,,1.2,{[]C(F)(F)C(F)(F)[]},PTFE,,,,
Systematic_Generation,,,PTFE_Mn200k_PDI1.5,,,,,,,,,,,POLY_006614,200000,,Homopolymer,,1.5,{[]C(F)(F)C(F)(F)[]},PTFE,,,,
Systematic_Generation,,,PTFE_Mn200k_PDI2.0,,,,,,,,,,,POLY_006615,200000,,Homopolymer,,2.0,{[]C(F)(F)C(F)(F)[]},PTFE,,,,
Systematic_Generation,,,PTFE_Mn200k_PDI2.5,,,,,,,,,,,POLY_006616,200000,,Homopolymer,,2.5,{[]C(F)(F)C(F)(F)[]},PTFE,,,,
Systematic_Generation,,,PTFE_Mn300k_PDI1.05,,,,,,,,,,,POLY_006617,300000,,Homopolymer,,1.05,{[]C(F)(F)C(F)(F)[]},PTFE,,,,
Systematic_Generation,,,PTFE_Mn300k_PDI1.1,,,,,,,,,,,POLY_006618,300000,,Homopolymer,,1.1,{[]C(F)(F)C(F)(F)[]},PTFE,,,,
Systematic_Generation,,,PTFE_Mn300k_PDI1.2,,,,,,,,,,,POLY_006619,300000,,Homopolymer,,1.2,{[]C(F)(F)C(F)(F)[]},PTFE,,,,
Systematic_Generation,,,PTFE_Mn300k_PDI1.5,,,,,,,,,,,POLY_006620,300000,,Homopolymer,,1.5,{[]C(F)(F)C(F)(F)[]},PTFE,,,,
Systematic_Generation,,,PTFE_Mn300k_PDI2.0,,,,,,,,,,,POLY_006621,300000,,Homopolymer,,2.0,{[]C(F)(F)C(F)(F)[]},PTFE,,,,
Systematic_Generation,,,PTFE_Mn300k_PDI2.5,,,,,,,,,,,POLY_006622,300000,,Homopolymer,,2.5,{[]C(F)(F)C(F)(F)[]},PTFE,,,,
Systematic_Generation,,,PTFE_Mn500k_PDI1.05,,,,,,,,,,,POLY_006623,500000,,Homopolymer,,1.05,{[]C(F)(F)C(F)(F)[]},PTFE,,,,
Systematic_Generation,,,PTFE_Mn500k_PDI1.1,,,,,,,,,,,POLY_006624,500000,,Homopolymer,,1.1,{[]C(F)(F)C(F)(F)[]},PTFE,,,,
Systematic_Generation,,,PTFE_Mn500k_PDI1.2,,,,,,,,,,,POLY_006625,500000,,Homopolymer,,1.2,{[]C(F)(F)C(F)(F)[]},PTFE,,,,
Systematic_Generation,,,PTFE_Mn500k_PDI1.5,,,,,,,,,,,POLY_006626,500000,,Homopolymer,,1.5,{[]C(F)(F)C(F)(F)[]},PTFE,,,,
Systematic_Generation,,,PTFE_Mn500k_PDI2.0,,,,,,,,,,,POLY_006627,500000,,Homopolymer,,2.0,{[]C(F)(F)C(F)(F)[]},PTFE,,,,
Systematic_Generation,,,PTFE_Mn500k_PDI2.5,,,,,,,,,,,POLY_006628,500000,,Homopolymer,,2.5,{[]C(F)(F)C(F)(F)[]},PTFE,,,,
Systematic_Generation,,,PTFE_Mn750k_PDI1.05,,,,,,,,,,,POLY_006629,750000,,Homopolymer,,1.05,{[]C(F)(F)C(F)(F)[]},PTFE,,,,
Systematic_Generation,,,PTFE_Mn750k_PDI1.1,,,,,,,,,,,POLY_006630,750000,,Homopolymer,,1.1,{[]C(F)(F)C(F)(F)[]},PTFE,,,,
Systematic_Generation,,,PTFE_Mn750k_PDI1.2,,,,,,,,,,,POLY_006631,750000,,Homopolymer,,1.2,{[]C(F)(F)C(F)(F)[]},PTFE,,,,
Systematic_Generation,,,PTFE_Mn750k_PDI1.5,,,,,,,,,,,POLY_006632,750000,,Homopolymer,,1.5,{[]C(F)(F)C(F)(F)[]},PTFE,,,,