source,n_elements,doping_concentration,name,termination,space_group,doping_level,volume_fraction,weight_percent,lattice_c,temperature,reinforcement,matrix,layers,material_id,molecular_weight,deposition_method,type,lattice_b,pdi,formula,composition,lattice_a,thickness_nm,dopant,substrate
Systematic_Generation,,,Cr40W60,,Im-3m,,,,,,,,,ALLOY_002350,,,Binary_Alloy,,,Cr_0.40W_0.60,"Cr:40%, W:60%",3.683,,,
Systematic_Generation,,,Cr50W50,,P63/mmc,,,,,,,,,ALLOY_002351,,,Binary_Alloy,,,Cr_0.50W_0.50,"Cr:50%, W:50%",3.513,,,
Systematic_Generation,,,Cr60W40,,P63/mmc,,,,,,,,,ALLOY_002352,,,Binary_Alloy,,,Cr_0.60W_0.40,"Cr:60%, W:40%",3.618,,,
Systematic_Generation,,,Cr70W30,,Im-3m,,,,,,,,,ALLOY_002353,,,Binary_Alloy,,,Cr_0.70W_0.30,"Cr:70%, W:30%",4.436,,,
Systematic_Generation,,,Cr80W20,,Fm-3m,,,,,,,,,ALLOY_002354,,,Binary_Alloy,,,Cr_0.80W_0.20,"Cr:80%, W:20%",4.398,,,
Systematic_Generation,,,Cr90W10,,Fm-3m,,,,,,,,,ALLOY_002355,,,Binary_Alloy,,,Cr_0.90W_0.10,"Cr:90%, W:10%",3.204,,,
Systematic_Generation,,,Cr10V90,,Pm-3m,,,,,,,,,ALLOY_002356,,,Binary_Alloy,,,Cr_0.10V_0.90,"Cr:10%, V:90%",3.257,,,
Systematic_Generation,,,Cr20V80,,Im-3m,,,,,,,,,ALLOY_002357,,,Binary_Alloy,,,Cr_0.20V_0.80,"Cr:20%, V:80%",4.44,,,
Systematic_Generation,,,Cr30V70,,Im-3m,,,,,,,,,ALLOY_002358,,,Binary_Alloy,,,Cr_0.30V_0.70,"Cr:30%, V:70%",2.778,,,
Systematic_Generation,,,Cr40V60,,P63/mmc,,,,,,,,,ALLOY_002359,,,Binary_Alloy,,,Cr_0.40V_0.60,"Cr:40%, V:60%",3.054,,,
Systematic_Generation,,,Cr50V50,,Pm-3m,,,,,,,,,ALLOY_002360,,,Binary_Alloy,,,Cr_0.50V_0.50,"Cr:50%, V:50%",4.124,,,
Systematic_Generation,,,Cr60V40,,Im-3m,,,,,,,,,ALLOY_002361,,,Binary_Alloy,,,Cr_0.60V_0.40,"Cr:60%, V:40%",3.806,,,
Systematic_Generation,,,Cr70V30,,P63/mmc,,,,,,,,,ALLOY_002362,,,Binary_Alloy,,,Cr_0.70V_0.30,"Cr:70%, V:30%",4.375,,,
Systematic_Generation,,,Cr80V20,,Im-3m,,,,,,,,,ALLOY_002363,,,Binary_Alloy,,,Cr_0.80V_0.20,"Cr:80%, V:20%",3.727,,,
Systematic_Generation,,,Cr90V10,,Im-3m,,,,,,,,,ALLOY_002364,,,Binary_Alloy,,,Cr_0.90V_0.10,"Cr:90%, V:10%",4.096,,,
Systematic_Generation,,,Cr10Nb90,,P63/mmc,,,,,,,,,ALLOY_002365,,,Binary_Alloy,,,Cr_0.10Nb_0.90,"Cr:10%, Nb:90%",3.886,,,
Systematic_Generation,,,Cr20Nb80,,Im-3m,,,,,,,,,ALLOY_002366,,,Binary_Alloy,,,Cr_0.20Nb_0.80,"Cr:20%, Nb:80%",2.722,,,
Systematic_Generation,,,Cr30Nb70,,Fm-3m,,,,,,,,,ALLOY_002367,,,Binary_Alloy,,,Cr_0.30Nb_0.70,"Cr:30%, Nb:70%",2.504,,,
Systematic_Generation,,,Cr40Nb60,,Pm-3m,,,,,,,,,ALLOY_002368,,,Binary_Alloy,,,Cr_0.40Nb_0.60,"Cr:40%, Nb:60%",3.933,,,
Systematic_Generation,,,Cr50Nb50,,Fm-3m,,,,,,,,,ALLOY_002369,,,Binary_Alloy,,,Cr_0.50Nb_0.50,"Cr:50%, Nb:50%",4.357,,,
Systematic_Generation,,,Cr60Nb40,,Im-3m,,,,,,,,,ALLOY_002370,,,Binary_Alloy,,,Cr_0.60Nb_0.40,"Cr:60%, Nb:40%",3.357,,,
Systematic_Generation,,,Cr70Nb30,,Fm-3m,,,,,,,,,ALLOY_002371,,,Binary_Alloy,,,Cr_0.70Nb_0.30,"Cr:70%, Nb:30%",4.273,,,
Systematic_Generation,,,Cr80Nb20,,Im-3m,,,,,,,,,ALLOY_002372,,,Binary_Alloy,,,Cr_0.80Nb_0.20,"Cr:80%, Nb:20%",3.883,,,
Systematic_Generation,,,Cr90Nb10,,Im-3m,,,,,,,,,ALLOY_002373,,,Binary_Alloy,,,Cr_0.90Nb_0.10,"Cr:90%, Nb:10%",3.139,,,
Systematic_Generation,,,Co10Mn90,,P63/mmc,,,,,,,,,ALLOY_002374,,,Binary_Alloy,,,Co_0.10Mn_0.90,"Co:10%, Mn:90%",4.165,,,
Systematic_Generation,,,Co20Mn80,,Pm-3m,,,,,,,,,ALLOY_002375,,,Binary_Alloy,,,Co_0.20Mn_0.80,"Co:20%, Mn:80%",2.552,,,
Systematic_Generation,,,Co30Mn70,,Im-3m,,,,,,,,,ALLOY_002376,,,Binary_Alloy,,,Co_0.30Mn_0.70,"Co:30%, Mn:70%",2.624,,,
Systematic_Generation,,,Co40Mn60,,P63/mmc,,,,,,,,,ALLOY_002377,,,Binary_Alloy,,,Co_0.40Mn_0.60,"Co:40%, Mn:60%",4.059,,,
Systematic_Generation,,,Co50Mn50,,P63/mmc,,,,,,,,,ALLOY_002378,,,Binary_Alloy,,,Co_0.50Mn_0.50,"Co:50%, Mn:50%",4.389,,,
Systematic_Generation,,,Co60Mn40,,P63/mmc,,,,,,,,,ALLOY_002379,,,Binary_Alloy,,,Co_0.60Mn_0.40,"Co:60%, Mn:40%",2.553,,,
Systematic_Generation,,,Co70Mn30,,P63/mmc,,,,,,,,,ALLOY_002380,,,Binary_Alloy,,,Co_0.70Mn_0.30,"Co:70%, Mn:30%",3.418,,,
Systematic_Generation,,,Co80Mn20,,Fm-3m,,,,,,,,,ALLOY_002381,,,Binary_Alloy,,,Co_0.80Mn_0.20,"Co:80%, Mn:20%",4.292,,,
Systematic_Generation,,,Co90Mn10,,Fm-3m,,,,,,,,,ALLOY_002382,,,Binary_Alloy,,,Co_0.90Mn_0.10,"Co:90%, Mn:10%",3.065,,,
Systematic_Generation,,,Co10Mg90,,P63/mmc,,,,,,,,,ALLOY_002383,,,Binary_Alloy,,,Co_0.10Mg_0.90,"Co:10%, Mg:90%",3.417,,,
Systematic_Generation,,,Co20Mg80,,Fm-3m,,,,,,,,,ALLOY_002384,,,Binary_Alloy,,,Co_0.20Mg_0.80,"Co:20%, Mg:80%",4.288,,,
Systematic_Generation,,,Co30Mg70,,Pm-3m,,,,,,,,,ALLOY_002385,,,Binary_Alloy,,,Co_0.30Mg_0.70,"Co:30%, Mg:70%",3.145,,,
Systematic_Generation,,,Co40Mg60,,Im-3m,,,,,,,,,ALLOY_002386,,,Binary_Alloy,,,Co_0.40Mg_0.60,"Co:40%, Mg:60%",2.668,,,
Systematic_Generation,,,Co50Mg50,,Fm-3m,,,,,,,,,ALLOY_002387,,,Binary_Alloy,,,Co_0.50Mg_0.50,"Co:50%, Mg:50%",4.245,,,
Systematic_Generation,,,Co60Mg40,,Im-3m,,,,,,,,,ALLOY_002388,,,Binary_Alloy,,,Co_0.60Mg_0.40,"Co:60%, Mg:40%",3.525,,,
Systematic_Generation,,,Co70Mg30,,P63/mmc,,,,,,,,,ALLOY_002389,,,Binary_Alloy,,,Co_0.70Mg_0.30,"Co:70%, Mg:30%",4.107,,,
Systematic_Generation,,,Co80Mg20,,Fm-3m,,,,,,,,,ALLOY_002390,,,Binary_Alloy,,,Co_0.80Mg_0.20,"Co:80%, Mg:20%",2.575,,,
Systematic_Generation,,,Co90Mg10,,Pm-3m,,,,,,,,,ALLOY_002391,,,Binary_Alloy,,,Co_0.90Mg_0.10,"Co:90%, Mg:10%",3.711,,,
Systematic_Generation,,,Co10Zn90,,Pm-3m,,,,,,,,,ALLOY_002392,,,Binary_Alloy,,,Co_0.10Zn_0.90,"Co:10%, Zn:90%",4.191,,,
Systematic_Generation,,,Co20Zn80,,P63/mmc,,,,,,,,,ALLOY_002393,,,Binary_Alloy,,,Co_0.20Zn_0.80,"Co:20%, Zn:80%",2.857,,,
Systematic_Generation,,,Co30Zn70,,Im-3m,,,,,,,,,ALLOY_002394,,,Binary_Alloy,,,Co_0.30Zn_0.70,"Co:30%, Zn:70%",3.244,,,
Systematic_Generation,,,Co40Zn60,,Fm-3m,,,,,,,,,ALLOY_002395,,,Binary_Alloy,,,Co_0.40Zn_0.60,"Co:40%, Zn:60%",4.13,,,
Systematic_Generation,,,Co50Zn50,,Fm-3m,,,,,,,,,ALLOY_002396,,,Binary_Alloy,,,Co_0.50Zn_0.50,"Co:50%, Zn:50%",2.993,,,
Systematic_Generation,,,Co60Zn40,,Fm-3m,,,,,,,,,ALLOY_002397,,,Binary_Alloy,,,Co_0.60Zn_0.40,"Co:60%, Zn:40%",2.921,,,
Systematic_Generation,,,Co70Zn30,,Fm-3m,,,,,,,,,ALLOY_002398,,,Binary_Alloy,,,Co_0.70Zn_0.30,"Co:70%, Zn:30%",3.255,,,
Systematic_Generation,,,Co80Zn20,,Im-3m,,,,,,,,,ALLOY_002399,,,Binary_Alloy,,,Co_0.80Zn_0.20,"Co:80%, Zn:20%",2.58,,,
Systematic_Generation,,,Co90Zn10,,Pm-3m,,,,,,,,,ALLOY_002400,,,Binary_Alloy,,,Co_0.90Zn_0.10,"Co:90%, Zn:10%",3.966,,,
Systematic_Generation,,,Co10Si90,,Im-3m,,,,,,,,,ALLOY_002401,,,Binary_Alloy,,,Co_0.10Si_0.90,"Co:10%, Si:90%",4.329,,,
Systematic_Generation,,,Co20Si80,,Im-3m,,,,,,,,,ALLOY_002402,,,Binary_Alloy,,,Co_0.20Si_0.80,"Co:20%, Si:80%",2.645,,,
Systematic_Generation,,,Co30Si70,,Im-3m,,,,,,,,,ALLOY_002403,,,Binary_Alloy,,,Co_0.30Si_0.70,"Co:30%, Si:70%",3.431,,,
Systematic_Generation,,,Co40Si60,,Fm-3m,,,,,,,,,ALLOY_002404,,,Binary_Alloy,,,Co_0.40Si_0.60,"Co:40%, Si:60%",3.214,,,
Systematic_Generation,,,Co50Si50,,P63/mmc,,,,,,,,,ALLOY_002405,,,Binary_Alloy,,,Co_0.50Si_0.50,"Co:50%, Si:50%",3.734,,,
Systematic_Generation,,,Co60Si40,,Im-3m,,,,,,,,,ALLOY_002406,,,Binary_Alloy,,,Co_0.60Si_0.40,"Co:60%, Si:40%",2.644,,,
Systematic_Generation,,,Co70Si30,,P63/mmc,,,,,,,,,ALLOY_002407,,,Binary_Alloy,,,Co_0.70Si_0.30,"Co:70%, Si:30%",3.162,,,
Systematic_Generation,,,Co80Si20,,Im-3m,,,,,,,,,ALLOY_002408,,,Binary_Alloy,,,Co_0.80Si_0.20,"Co:80%, Si:20%",3.642,,,
Systematic_Generation,,,Co90Si10,,P63/mmc,,,,,,,,,ALLOY_002409,,,Binary_Alloy,,,Co_0.90Si_0.10,"Co:90%, Si:10%",3.366,,,
Systematic_Generation,,,Co10Mo90,,Fm-3m,,,,,,,,,ALLOY_002410,,,Binary_Alloy,,,Co_0.10Mo_0.90,"Co:10%, Mo:90%",2.983,,,
Systematic_Generation,,,Co20Mo80,,Im-3m,,,,,,,,,ALLOY_002411,,,Binary_Alloy,,,Co_0.20Mo_0.80,"Co:20%, Mo:80%",3.88,,,
Systematic_Generation,,,Co30Mo70,,Im-3m,,,,,,,,,ALLOY_002412,,,Binary_Alloy,,,Co_0.30Mo_0.70,"Co:30%, Mo:70%",2.694,,,
Systematic_Generation,,,Co40Mo60,,Im-3m,,,,,,,,,ALLOY_002413,,,Binary_Alloy,,,Co_0.40Mo_0.60,"Co:40%, Mo:60%",2.691,,,
Systematic_Generation,,,Co50Mo50,,Fm-3m,,,,,,,,,ALLOY_002414,,,Binary_Alloy,,,Co_0.50Mo_0.50,"Co:50%, Mo:50%",3.206,,,
Systematic_Generation,,,Co60Mo40,,Pm-3m,,,,,,,,,ALLOY_002415,,,Binary_Alloy,,,Co_0.60Mo_0.40,"Co:60%, Mo:40%",4.191,,,
Systematic_Generation,,,Co70Mo30,,Pm-3m,,,,,,,,,ALLOY_002416,,,Binary_Alloy,,,Co_0.70Mo_0.30,"Co:70%, Mo:30%",3.627,,,
Systematic_Generation,,,Co80Mo20,,P63/mmc,,,,,,,,,ALLOY_002417,,,Binary_Alloy,,,Co_0.80Mo_0.20,"Co:80%, Mo:20%",3.023,,,
Systematic_Generation,,,Co90Mo10,,Fm-3m,,,,,,,,,ALLOY_002418,,,Binary_Alloy,,,Co_0.90Mo_0.10,"Co:90%, Mo:10%",4.046,,,
Systematic_Generation,,,Co10W90,,Fm-3m,,,,,,,,,ALLOY_002419,,,Binary_Alloy,,,Co_0.10W_0.90,"Co:10%, W:90%",2.846,,,
Systematic_Generation,,,Co20W80,,Pm-3m,,,,,,,,,ALLOY_002420,,,Binary_Alloy,,,Co_0.20W_0.80,"Co:20%, W:80%",3.026,,,
Systematic_Generation,,,Co30W70,,P63/mmc,,,,,,,,,ALLOY_002421,,,Binary_Alloy,,,Co_0.30W_0.70,"Co:30%, W:70%",3.169,,,
Systematic_Generation,,,Co40W60,,P63/mmc,,,,,,,,,ALLOY_002422,,,Binary_Alloy,,,Co_0.40W_0.60,"Co:40%, W:60%",3.469,,,
Systematic_Generation,,,Co50W50,,Pm-3m,,,,,,,,,ALLOY_002423,,,Binary_Alloy,,,Co_0.50W_0.50,"Co:50%, W:50%",3.062,,,
Systematic_Generation,,,Co60W40,,P63/mmc,,,,,,,,,ALLOY_002424,,,Binary_Alloy,,,Co_0.60W_0.40,"Co:60%, W:40%",4.32,,,
Systematic_Generation,,,Co70W30,,Pm-3m,,,,,,,,,ALLOY_002425,,,Binary_Alloy,,,Co_0.70W_0.30,"Co:70%, W:30%",3.107,,,
Systematic_Generation,,,Co80W20,,Pm-3m,,,,,,,,,ALLOY_002426,,,Binary_Alloy,,,Co_0.80W_0.20,"Co:80%, W:20%",2.768,,,
Systematic_Generation,,,Co90W10,,P63/mmc,,,,,,,,,ALLOY_002427,,,Binary_Alloy,,,Co_0.90W_0.10,"Co:90%, W:10%",4.286,,,
Systematic_Generation,,,Co10V90,,Pm-3m,,,,,,,,,ALLOY_002428,,,Binary_Alloy,,,Co_0.10V_0.90,"Co:10%, V:90%",2.598,,,
Systematic_Generation,,,Co20V80,,Pm-3m,,,,,,,,,ALLOY_002429,,,Binary_Alloy,,,Co_0.20V_0.80,"Co:20%, V:80%",4.237,,,
Systematic_Generation,,,Co30V70,,Im-3m,,,,,,,,,ALLOY_002430,,,Binary_Alloy,,,Co_0.30V_0.70,"Co:30%, V:70%",3.972,,,
Systematic_Generation,,,Co40V60,,Pm-3m,,,,,,,,,ALLOY_002431,,,Binary_Alloy,,,Co_0.40V_0.60,"Co:40%, V:60%",3.197,,,
Systematic_Generation,,,Co50V50,,Pm-3m,,,,,,,,,ALLOY_002432,,,Binary_Alloy,,,Co_0.50V_0.50,"Co:50%, V:50%",4.105,,,
Systematic_Generation,,,Co60V40,,P63/mmc,,,,,,,,,ALLOY_002433,,,Binary_Alloy,,,Co_0.60V_0.40,"Co:60%, V:40%",2.919,,,
Systematic_Generation,,,Co70V30,,P63/mmc,,,,,,,,,ALLOY_002434,,,Binary_Alloy,,,Co_0.70V_0.30,"Co:70%, V:30%",3.406,,,
Systematic_Generation,,,Co80V20,,Fm-3m,,,,,,,,,ALLOY_002435,,,Binary_Alloy,,,Co_0.80V_0.20,"Co:80%, V:20%",3.903,,,
Systematic_Generation,,,Co90V10,,Fm-3m,,,,,,,,,ALLOY_002436,,,Binary_Alloy,,,Co_0.90V_0.10,"Co:90%, V:10%",4.464,,,
Systematic_Generation,,,Co10Nb90,,Im-3m,,,,,,,,,ALLOY_002437,,,Binary_Alloy,,,Co_0.10Nb_0.90,"Co:10%, Nb:90%",3.833,,,
Systematic_Generation,,,Co20Nb80,,P63/mmc,,,,,,,,,ALLOY_002438,,,Binary_Alloy,,,Co_0.20Nb_0.80,"Co:20%, Nb:80%",4.394,,,
Systematic_Generation,,,Co30Nb70,,P63/mmc,,,,,,,,,ALLOY_002439,,,Binary_Alloy,,,Co_0.30Nb_0.70,"Co:30%, Nb:70%",3.354,,,
Systematic_Generation,,,Co40Nb60,,Fm-3m,,,,,,,,,ALLOY_002440,,,Binary_Alloy,,,Co_0.40Nb_0.60,"Co:40%, Nb:60%",4.059,,,
Systematic_Generation,,,Co50Nb50,,P63/mmc,,,,,,,,,ALLOY_002441,,,Binary_Alloy,,,Co_0.50Nb_0.50,"Co:50%, Nb:50%",3.961,,,
Systematic_Generation,,,Co60Nb40,,Im-3m,,,,,,,,,ALLOY_002442,,,Binary_Alloy,,,Co_0.60Nb_0.40,"Co:60%, Nb:40%",2.608,,,
Systematic_Generation,,,Co70Nb30,,Fm-3m,,,,,,,,,ALLOY_002443,,,Binary_Alloy,,,Co_0.70Nb_0.30,"Co:70%, Nb:30%",3.195,,,
Systematic_Generation,,,Co80Nb20,,Pm-3m,,,,,,,,,ALLOY_002444,,,Binary_Alloy,,,Co_0.80Nb_0.20,"Co:80%, Nb:20%",3.223,,,
Systematic_Generation,,,Co90Nb10,,Fm-3m,,,,,,,,,ALLOY_002445,,,Binary_Alloy,,,Co_0.90Nb_0.10,"Co:90%, Nb:10%",4.045,,,
Systematic_Generation,,,Mn10Mg90,,P63/mmc,,,,,,,,,ALLOY_002446,,,Binary_Alloy,,,Mn_0.10Mg_0.90,"Mn:10%, Mg:90%",2.517,,,
Systematic_Generation,,,Mn20Mg80,,P63/mmc,,,,,,,,,ALLOY_002447,,,Binary_Alloy,,,Mn_0.20Mg_0.80,"Mn:20%, Mg:80%",2.871,,,
Systematic_Generation,,,Mn30Mg70,,Fm-3m,,,,,,,,,ALLOY_002448,,,Binary_Alloy,,,Mn_0.30Mg_0.70,"Mn:30%, Mg:70%",3.024,,,
Systematic_Generation,,,Mn40Mg60,,Pm-3m,,,,,,,,,ALLOY_002449,,,Binary_Alloy,,,Mn_0.40Mg_0.60,"Mn:40%, Mg:60%",3.035,,,
Systematic_Generation,,,Mn50Mg50,,Fm-3m,,,,,,,,,ALLOY_002450,,,Binary_Alloy,,,Mn_0.50Mg_0.50,"Mn:50%, Mg:50%",3.214,,,
Systematic_Generation,,,Mn60Mg40,,Pm-3m,,,,,,,,,ALLOY_002451,,,Binary_Alloy,,,Mn_0.60Mg_0.40,"Mn:60%, Mg:40%",4.374,,,
Systematic_Generation,,,Mn70Mg30,,P63/mmc,,,,,,,,,ALLOY_002452,,,Binary_Alloy,,,Mn_0.70Mg_0.30,"Mn:70%, Mg:30%",4.489,,,
Systematic_Generation,,,Mn80Mg20,,Im-3m,,,,,,,,,ALLOY_002453,,,Binary_Alloy,,,Mn_0.80Mg_0.20,"Mn:80%, Mg:20%",2.659,,,
Systematic_Generation,,,Mn90Mg10,,P63/mmc,,,,,,,,,ALLOY_002454,,,Binary_Alloy,,,Mn_0.90Mg_0.10,"Mn:90%, Mg:10%",3.138,,,
Systematic_Generation,,,Mn10Zn90,,Pm-3m,,,,,,,,,ALLOY_002455,,,Binary_Alloy,,,Mn_0.10Zn_0.90,"Mn:10%, Zn:90%",4.109,,,
Systematic_Generation,,,Mn20Zn80,,Im-3m,,,,,,,,,ALLOY_002456,,,Binary_Alloy,,,Mn_0.20Zn_0.80,"Mn:20%, Zn:80%",4.441,,,
Systematic_Generation,,,Mn30Zn70,,Fm-3m,,,,,,,,,ALLOY_002457,,,Binary_Alloy,,,Mn_0.30Zn_0.70,"Mn:30%, Zn:70%",4.072,,,
Systematic_Generation,,,Mn40Zn60,,P63/mmc,,,,,,,,,ALLOY_002458,,,Binary_Alloy,,,Mn_0.40Zn_0.60,"Mn:40%, Zn:60%",3.947,,,
Systematic_Generation,,,Mn50Zn50,,Im-3m,,,,,,,,,ALLOY_002459,,,Binary_Alloy,,,Mn_0.50Zn_0.50,"Mn:50%, Zn:50%",3.452,,,
Systematic_Generation,,,Mn60Zn40,,Im-3m,,,,,,,,,ALLOY_002460,,,Binary_Alloy,,,Mn_0.60Zn_0.40,"Mn:60%, Zn:40%",2.547,,,
Systematic_Generation,,,Mn70Zn30,,Fm-3m,,,,,,,,,ALLOY_002461,,,Binary_Alloy,,,Mn_0.70Zn_0.30,"Mn:70%, Zn:30%",3.663,,,
Systematic_Generation,,,Mn80Zn20,,Im-3m,,,,,,,,,ALLOY_002462,,,Binary_Alloy,,,Mn_0.80Zn_0.20,"Mn:80%, Zn:20%",3.786,,,
Systematic_Generation,,,Mn90Zn10,,Pm-3m,,,,,,,,,ALLOY_002463,,,Binary_Alloy,,,Mn_0.90Zn_0.10,"Mn:90%, Zn:10%",2.56,,,
Systematic_Generation,,,Mn10Si90,,Pm-3m,,,,,,,,,ALLOY_002464,,,Binary_Alloy,,,Mn_0.10Si_0.90,"Mn:10%, Si:90%",3.358,,,
Systematic_Generation,,,Mn20Si80,,Fm-3m,,,,,,,,,ALLOY_002465,,,Binary_Alloy,,,Mn_0.20Si_0.80,"Mn:20%, Si:80%",3.972,,,
Systematic_Generation,,,Mn30Si70,,Im-3m,,,,,,,,,ALLOY_002466,,,Binary_Alloy,,,Mn_0.30Si_0.70,"Mn:30%, Si:70%",2.502,,,
Systematic_Generation,,,Mn40Si60,,Pm-3m,,,,,,,,,ALLOY_002467,,,Binary_Alloy,,,Mn_0.40Si_0.60,"Mn:40%, Si:60%",4.108,,,
Systematic_Generation,,,Mn50Si50,,Fm-3m,,,,,,,,,ALLOY_002468,,,Binary_Alloy,,,Mn_0.50Si_0.50,"Mn:50%, Si:50%",2.968,,,
Systematic_Generation,,,Mn60Si40,,Fm-3m,,,,,,,,,ALLOY_002469,,,Binary_Alloy,,,Mn_0.60Si_0.40,"Mn:60%, Si:40%",4.409,,,
Systematic_Generation,,,Mn70Si30,,Im-3m,,,,,,,,,ALLOY_002470,,,Binary_Alloy,,,Mn_0.70Si_0.30,"Mn:70%, Si:30%",4.157,,,
Systematic_Generation,,,Mn80Si20,,Fm-3m,,,,,,,,,ALLOY_002471,,,Binary_Alloy,,,Mn_0.80Si_0.20,"Mn:80%, Si:20%",3.749,,,
Systematic_Generation,,,Mn90Si10,,P63/mmc,,,,,,,,,ALLOY_002472,,,Binary_Alloy,,,Mn_0.90Si_0.10,"Mn:90%, Si:10%",4.443,,,
Systematic_Generation,,,Mn10Mo90,,Im-3m,,,,,,,,,ALLOY_002473,,,Binary_Alloy,,,Mn_0.10Mo_0.90,"Mn:10%, Mo:90%",4.211,,,
Systematic_Generation,,,Mn20Mo80,,P63/mmc,,,,,,,,,ALLOY_002474,,,Binary_Alloy,,,Mn_0.20Mo_0.80,"Mn:20%, Mo:80%",3.114,,,
Systematic_Generation,,,Mn30Mo70,,Pm-3m,,,,,,,,,ALLOY_002475,,,Binary_Alloy,,,Mn_0.30Mo_0.70,"Mn:30%, Mo:70%",3.881,,,
Systematic_Generation,,,Mn40Mo60,,Fm-3m,,,,,,,,,ALLOY_002476,,,Binary_Alloy,,,Mn_0.40Mo_0.60,"Mn:40%, Mo:60%",3.756,,,
Systematic_Generation,,,Mn50Mo50,,P63/mmc,,,,,,,,,ALLOY_002477,,,Binary_Alloy,,,Mn_0.50Mo_0.50,"Mn:50%, Mo:50%",2.527,,,
Systematic_Generation,,,Mn60Mo40,,Fm-3m,,,,,,,,,ALLOY_002478,,,Binary_Alloy,,,Mn_0.60Mo_0.40,"Mn:60%, Mo:40%",4.246,,,
Systematic_Generation,,,Mn70Mo30,,P63/mmc,,,,,,,,,ALLOY_002479,,,Binary_Alloy,,,Mn_0.70Mo_0.30,"Mn:70%, Mo:30%",2.815,,,
Systematic_Generation,,,Mn80Mo20,,Pm-3m,,,,,,,,,ALLOY_002480,,,Binary_Alloy,,,Mn_0.80Mo_0.20,"Mn:80%, Mo:20%",3.607,,,
Systematic_Generation,,,Mn90Mo10,,Pm-3m,,,,,,,,,ALLOY_002481,,,Binary_Alloy,,,Mn_0.90Mo_0.10,"Mn:90%, Mo:10%",3.478,,,
Systematic_Generation,,,Mn10W90,,Pm-3m,,,,,,,,,ALLOY_002482,,,Binary_Alloy,,,Mn_0.10W_0.90,"Mn:10%, W:90%",2.733,,,
Systematic_Generation,,,Mn20W80,,P63/mmc,,,,,,,,,ALLOY_002483,,,Binary_Alloy,,,Mn_0.20W_0.80,"Mn:20%, W:80%",3.439,,,
Systematic_Generation,,,Mn30W70,,Fm-3m,,,,,,,,,ALLOY_002484,,,Binary_Alloy,,,Mn_0.30W_0.70,"Mn:30%, W:70%",3.298,,,
Systematic_Generation,,,Mn40W60,,Pm-3m,,,,,,,,,ALLOY_002485,,,Binary_Alloy,,,Mn_0.40W_0.60,"Mn:40%, W:60%",2.732,,,
Systematic_Generation,,,Mn50W50,,Im-3m,,,,,,,,,ALLOY_002486,,,Binary_Alloy,,,Mn_0.50W_0.50,"Mn:50%, W:50%",4.481,,,
Systematic_Generation,,,Mn60W40,,Fm-3m,,,,,,,,,ALLOY_002487,,,Binary_Alloy,,,Mn_0.60W_0.40,"Mn:60%, W:40%",4.421,,,
Systematic_Generation,,,Mn70W30,,Fm-3m,,,,,,,,,ALLOY_002488,,,Binary_Alloy,,,Mn_0.70W_0.30,"Mn:70%, W:30%",2.694,,,
Systematic_Generation,,,Mn80W20,,Im-3m,,,,,,,,,ALLOY_002489,,,Binary_Alloy,,,Mn_0.80W_0.20,"Mn:80%, W:20%",3.068,,,
Systematic_Generation,,,Mn90W10,,Fm-3m,,,,,,,,,ALLOY_002490,,,Binary_Alloy,,,Mn_0.90W_0.10,"Mn:90%, W:10%",4.13,,,
Systematic_Generation,,,Mn10V90,,Pm-3m,,,,,,,,,ALLOY_002491,,,Binary_Alloy,,,Mn_0.10V_0.90,"Mn:10%, V:90%",3.462,,,
Systematic_Generation,,,Mn20V80,,Fm-3m,,,,,,,,,ALLOY_002492,,,Binary_Alloy,,,Mn_0.20V_0.80,"Mn:20%, V:80%",3.641,,,
Systematic_Generation,,,Mn30V70,,P63/mmc,,,,,,,,,ALLOY_002493,,,Binary_Alloy,,,Mn_0.30V_0.70,"Mn:30%, V:70%",3.968,,,
Systematic_Generation,,,Mn40V60,,P63/mmc,,,,,,,,,ALLOY_002494,,,Binary_Alloy,,,Mn_0.40V_0.60,"Mn:40%, V:60%",3.751,,,
Systematic_Generation,,,Mn50V50,,Im-3m,,,,,,,,,ALLOY_002495,,,Binary_Alloy,,,Mn_0.50V_0.50,"Mn:50%, V:50%",4.296,,,
Systematic_Generation,,,Mn60V40,,Pm-3m,,,,,,,,,ALLOY_002496,,,Binary_Alloy,,,Mn_0.60V_0.40,"Mn:60%, V:40%",3.404,,,
Systematic_Generation,,,Mn70V30,,P63/mmc,,,,,,,,,ALLOY_002497,,,Binary_Alloy,,,Mn_0.70V_0.30,"Mn:70%, V:30%",4.04,,,
Systematic_Generation,,,Mn80V20,,P63/mmc,,,,,,,,,ALLOY_002498,,,Binary_Alloy,,,Mn_0.80V_0.20,"Mn:80%, V:20%",2.916,,,
Systematic_Generation,,,Mn90V10,,Im-3m,,,,,,,,,ALLOY_002499,,,Binary_Alloy,,,Mn_0.90V_0.10,"Mn:90%, V:10%",3.648,,,
Systematic_Generation,,,Mn10Nb90,,Im-3m,,,,,,,,,ALLOY_002500,,,Binary_Alloy,,,Mn_0.10Nb_0.90,"Mn:10%, Nb:90%",4.016,,,
Systematic_Generation,,,Mn20Nb80,,Pm-3m,,,,,,,,,ALLOY_002501,,,Binary_Alloy,,,Mn_0.20Nb_0.80,"Mn:20%, Nb:80%",2.566,,,
Systematic_Generation,,,Mn30Nb70,,Im-3m,,,,,,,,,ALLOY_002502,,,Binary_Alloy,,,Mn_0.30Nb_0.70,"Mn:30%, Nb:70%",2.749,,,
Systematic_Generation,,,Mn40Nb60,,P63/mmc,,,,,,,,,ALLOY_002503,,,Binary_Alloy,,,Mn_0.40Nb_0.60,"Mn:40%, Nb:60%",3.226,,,
Systematic_Generation,,,Mn50Nb50,,Pm-3m,,,,,,,,,ALLOY_002504,,,Binary_Alloy,,,Mn_0.50Nb_0.50,"Mn:50%, Nb:50%",4.037,,,
Systematic_Generation,,,Mn60Nb40,,Fm-3m,,,,,,,,,ALLOY_002505,,,Binary_Alloy,,,Mn_0.60Nb_0.40,"Mn:60%, Nb:40%",2.542,,,
Systematic_Generation,,,Mn70Nb30,,Im-3m,,,,,,,,,ALLOY_002506,,,Binary_Alloy,,,Mn_0.70Nb_0.30,"Mn:70%, Nb:30%",4.376,,,
Systematic_Generation,,,Mn80Nb20,,P63/mmc,,,,,,,,,ALLOY_002507,,,Binary_Alloy,,,Mn_0.80Nb_0.20,"Mn:80%, Nb:20%",3.416,,,
Systematic_Generation,,,Mn90Nb10,,Pm-3m,,,,,,,,,ALLOY_002508,,,Binary_Alloy,,,Mn_0.90Nb_0.10,"Mn:90%, Nb:10%",2.703,,,
Systematic_Generation,,,Mg10Zn90,,P63/mmc,,,,,,,,,ALLOY_002509,,,Binary_Alloy,,,Mg_0.10Zn_0.90,"Mg:10%, Zn:90%",3.892,,,
Systematic_Generation,,,Mg20Zn80,,P63/mmc,,,,,,,,,ALLOY_002510,,,Binary_Alloy,,,Mg_0.20Zn_0.80,"Mg:20%, Zn:80%",3.405,,,
Systematic_Generation,,,Mg30Zn70,,P63/mmc,,,,,,,,,ALLOY_002511,,,Binary_Alloy,,,Mg_0.30Zn_0.70,"Mg:30%, Zn:70%",3.425,,,
Systematic_Generation,,,Mg40Zn60,,Im-3m,,,,,,,,,ALLOY_002512,,,Binary_Alloy,,,Mg_0.40Zn_0.60,"Mg:40%, Zn:60%",2.8,,,
Systematic_Generation,,,Mg50Zn50,,P63/mmc,,,,,,,,,ALLOY_002513,,,Binary_Alloy,,,Mg_0.50Zn_0.50,"Mg:50%, Zn:50%",4.1,,,
Systematic_Generation,,,Mg60Zn40,,Im-3m,,,,,,,,,ALLOY_002514,,,Binary_Alloy,,,Mg_0.60Zn_0.40,"Mg:60%, Zn:40%",4.451,,,
Systematic_Generation,,,Mg70Zn30,,Fm-3m,,,,,,,,,ALLOY_002515,,,Binary_Alloy,,,Mg_0.70Zn_0.30,"Mg:70%, Zn:30%",2.722,,,