source,n_elements,doping_concentration,name,termination,space_group,doping_level,volume_fraction,weight_percent,lattice_c,temperature,reinforcement,matrix,layers,material_id,molecular_weight,deposition_method,type,lattice_b,pdi,formula,composition,lattice_a,thickness_nm,dopant,substrate
Systematic_Generation,,,PA6_Mn100k_PDI1.5,,,,,,,,,,,POLY_006314,100000,,Homopolymer,,1.5,{[]NC(=O)CCCCC[]},PA6,,,,
Systematic_Generation,,,PA6_Mn100k_PDI2.0,,,,,,,,,,,POLY_006315,100000,,Homopolymer,,2.0,{[]NC(=O)CCCCC[]},PA6,,,,
Systematic_Generation,,,PA6_Mn100k_PDI2.5,,,,,,,,,,,POLY_006316,100000,,Homopolymer,,2.5,{[]NC(=O)CCCCC[]},PA6,,,,
Systematic_Generation,,,PA6_Mn150k_PDI1.05,,,,,,,,,,,POLY_006317,150000,,Homopolymer,,1.05,{[]NC(=O)CCCCC[]},PA6,,,,
Systematic_Generation,,,PA6_Mn150k_PDI1.1,,,,,,,,,,,POLY_006318,150000,,Homopolymer,,1.1,{[]NC(=O)CCCCC[]},PA6,,,,
Systematic_Generation,,,PA6_Mn150k_PDI1.2,,,,,,,,,,,POLY_006319,150000,,Homopolymer,,1.2,{[]NC(=O)CCCCC[]},PA6,,,,
Systematic_Generation,,,PA6_Mn150k_PDI1.5,,,,,,,,,,,POLY_006320,150000,,Homopolymer,,1.5,{[]NC(=O)CCCCC[]},PA6,,,,
Systematic_Generation,,,PA6_Mn150k_PDI2.0,,,,,,,,,,,POLY_006321,150000,,Homopolymer,,2.0,{[]NC(=O)CCCCC[]},PA6,,,,
Systematic_Generation,,,PA6_Mn150k_PDI2.5,,,,,,,,,,,POLY_006322,150000,,Homopolymer,,2.5,{[]NC(=O)CCCCC[]},PA6,,,,
Systematic_Generation,,,PA6_Mn200k_PDI1.05,,,,,,,,,,,POLY_006323,200000,,Homopolymer,,1.05,{[]NC(=O)CCCCC[]},PA6,,,,
Systematic_Generation,,,PA6_Mn200k_PDI1.1,,,,,,,,,,,POLY_006324,200000,,Homopolymer,,1.1,{[]NC(=O)CCCCC[]},PA6,,,,
Systematic_Generation,,,PA6_Mn200k_PDI1.2,,,,,,,,,,,POLY_006325,200000,,Homopolymer,,1.2,{[]NC(=O)CCCCC[]},PA6,,,,
Systematic_Generation,,,PA6_Mn200k_PDI1.5,,,,,,,,,,,POLY_006326,200000,,Homopolymer,,1.5,{[]NC(=O)CCCCC[]},PA6,,,,
Systematic_Generation,,,PA6_Mn200k_PDI2.0,,,,,,,,,,,POLY_006327,200000,,Homopolymer,,2.0,{[]NC(=O)CCCCC[]},PA6,,,,
Systematic_Generation,,,PA6_Mn200k_PDI2.5,,,,,,,,,,,POLY_006328,200000,,Homopolymer,,2.5,{[]NC(=O)CCCCC[]},PA6,,,,
Systematic_Generation,,,PA6_Mn300k_PDI1.05,,,,,,,,,,,POLY_006329,300000,,Homopolymer,,1.05,{[]NC(=O)CCCCC[]},PA6,,,,
Systematic_Generation,,,PA6_Mn300k_PDI1.1,,,,,,,,,,,POLY_006330,300000,,Homopolymer,,1.1,{[]NC(=O)CCCCC[]},PA6,,,,
Systematic_Generation,,,PA6_Mn300k_PDI1.2,,,,,,,,,,,POLY_006331,300000,,Homopolymer,,1.2,{[]NC(=O)CCCCC[]},PA6,,,,
Systematic_Generation,,,PA6_Mn300k_PDI1.5,,,,,,,,,,,POLY_006332,300000,,Homopolymer,,1.5,{[]NC(=O)CCCCC[]},PA6,,,,
Systematic_Generation,,,PA6_Mn300k_PDI2.0,,,,,,,,,,,POLY_006333,300000,,Homopolymer,,2.0,{[]NC(=O)CCCCC[]},PA6,,,,
Systematic_Generation,,,PA6_Mn300k_PDI2.5,,,,,,,,,,,POLY_006334,300000,,Homopolymer,,2.5,{[]NC(=O)CCCCC[]},PA6,,,,
Systematic_Generation,,,PA6_Mn500k_PDI1.05,,,,,,,,,,,POLY_006335,500000,,Homopolymer,,1.05,{[]NC(=O)CCCCC[]},PA6,,,,
Systematic_Generation,,,PA6_Mn500k_PDI1.1,,,,,,,,,,,POLY_006336,500000,,Homopolymer,,1.1,{[]NC(=O)CCCCC[]},PA6,,,,
Systematic_Generation,,,PA6_Mn500k_PDI1.2,,,,,,,,,,,POLY_006337,500000,,Homopolymer,,1.2,{[]NC(=O)CCCCC[]},PA6,,,,
Systematic_Generation,,,PA6_Mn500k_PDI1.5,,,,,,,,,,,POLY_006338,500000,,Homopolymer,,1.5,{[]NC(=O)CCCCC[]},PA6,,,,
Systematic_Generation,,,PA6_Mn500k_PDI2.0,,,,,,,,,,,POLY_006339,500000,,Homopolymer,,2.0,{[]NC(=O)CCCCC[]},PA6,,,,
Systematic_Generation,,,PA6_Mn500k_PDI2.5,,,,,,,,,,,POLY_006340,500000,,Homopolymer,,2.5,{[]NC(=O)CCCCC[]},PA6,,,,
Systematic_Generation,,,PA6_Mn750k_PDI1.05,,,,,,,,,,,POLY_006341,750000,,Homopolymer,,1.05,{[]NC(=O)CCCCC[]},PA6,,,,
Systematic_Generation,,,PA6_Mn750k_PDI1.1,,,,,,,,,,,POLY_006342,750000,,Homopolymer,,1.1,{[]NC(=O)CCCCC[]},PA6,,,,
Systematic_Generation,,,PA6_Mn750k_PDI1.2,,,,,,,,,,,POLY_006343,750000,,Homopolymer,,1.2,{[]NC(=O)CCCCC[]},PA6,,,,
Systematic_Generation,,,PA6_Mn750k_PDI1.5,,,,,,,,,,,POLY_006344,750000,,Homopolymer,,1.5,{[]NC(=O)CCCCC[]},PA6,,,,
Systematic_Generation,,,PA6_Mn750k_PDI2.0,,,,,,,,,,,POLY_006345,750000,,Homopolymer,,2.0,{[]NC(=O)CCCCC[]},PA6,,,,
Systematic_Generation,,,PA6_Mn750k_PDI2.5,,,,,,,,,,,POLY_006346,750000,,Homopolymer,,2.5,{[]NC(=O)CCCCC[]},PA6,,,,
Systematic_Generation,,,PA6_Mn1000k_PDI1.05,,,,,,,,,,,POLY_006347,1000000,,Homopolymer,,1.05,{[]NC(=O)CCCCC[]},PA6,,,,
Systematic_Generation,,,PA6_Mn1000k_PDI1.1,,,,,,,,,,,POLY_006348,1000000,,Homopolymer,,1.1,{[]NC(=O)CCCCC[]},PA6,,,,
Systematic_Generation,,,PA6_Mn1000k_PDI1.2,,,,,,,,,,,POLY_006349,1000000,,Homopolymer,,1.2,{[]NC(=O)CCCCC[]},PA6,,,,
Systematic_Generation,,,PA6_Mn1000k_PDI1.5,,,,,,,,,,,POLY_006350,1000000,,Homopolymer,,1.5,{[]NC(=O)CCCCC[]},PA6,,,,
Systematic_Generation,,,PA6_Mn1000k_PDI2.0,,,,,,,,,,,POLY_006351,1000000,,Homopolymer,,2.0,{[]NC(=O)CCCCC[]},PA6,,,,
Systematic_Generation,,,PA6_Mn1000k_PDI2.5,,,,,,,,,,,POLY_006352,1000000,,Homopolymer,,2.5,{[]NC(=O)CCCCC[]},PA6,,,,
Systematic_Generation,,,PA66_Mn5k_PDI1.05,,,,,,,,,,,POLY_006353,5000,,Homopolymer,,1.05,{[]NC(=O)CCCCCC(=O)N.CCCCCC[]},PA66,,,,
Systematic_Generation,,,PA66_Mn5k_PDI1.1,,,,,,,,,,,POLY_006354,5000,,Homopolymer,,1.1,{[]NC(=O)CCCCCC(=O)N.CCCCCC[]},PA66,,,,
Systematic_Generation,,,PA66_Mn5k_PDI1.2,,,,,,,,,,,POLY_006355,5000,,Homopolymer,,1.2,{[]NC(=O)CCCCCC(=O)N.CCCCCC[]},PA66,,,,
Systematic_Generation,,,PA66_Mn5k_PDI1.5,,,,,,,,,,,POLY_006356,5000,,Homopolymer,,1.5,{[]NC(=O)CCCCCC(=O)N.CCCCCC[]},PA66,,,,
Systematic_Generation,,,PA66_Mn5k_PDI2.0,,,,,,,,,,,POLY_006357,5000,,Homopolymer,,2.0,{[]NC(=O)CCCCCC(=O)N.CCCCCC[]},PA66,,,,
Systematic_Generation,,,PA66_Mn5k_PDI2.5,,,,,,,,,,,POLY_006358,5000,,Homopolymer,,2.5,{[]NC(=O)CCCCCC(=O)N.CCCCCC[]},PA66,,,,
Systematic_Generation,,,PA66_Mn10k_PDI1.05,,,,,,,,,,,POLY_006359,10000,,Homopolymer,,1.05,{[]NC(=O)CCCCCC(=O)N.CCCCCC[]},PA66,,,,
Systematic_Generation,,,PA66_Mn10k_PDI1.1,,,,,,,,,,,POLY_006360,10000,,Homopolymer,,1.1,{[]NC(=O)CCCCCC(=O)N.CCCCCC[]},PA66,,,,
Systematic_Generation,,,PA66_Mn10k_PDI1.2,,,,,,,,,,,POLY_006361,10000,,Homopolymer,,1.2,{[]NC(=O)CCCCCC(=O)N.CCCCCC[]},PA66,,,,
Systematic_Generation,,,PA66_Mn10k_PDI1.5,,,,,,,,,,,POLY_006362,10000,,Homopolymer,,1.5,{[]NC(=O)CCCCCC(=O)N.CCCCCC[]},PA66,,,,
Systematic_Generation,,,PA66_Mn10k_PDI2.0,,,,,,,,,,,POLY_006363,10000,,Homopolymer,,2.0,{[]NC(=O)CCCCCC(=O)N.CCCCCC[]},PA66,,,,
Systematic_Generation,,,PA66_Mn10k_PDI2.5,,,,,,,,,,,POLY_006364,10000,,Homopolymer,,2.5,{[]NC(=O)CCCCCC(=O)N.CCCCCC[]},PA66,,,,
Systematic_Generation,,,PA66_Mn25k_PDI1.05,,,,,,,,,,,POLY_006365,25000,,Homopolymer,,1.05,{[]NC(=O)CCCCCC(=O)N.CCCCCC[]},PA66,,,,
Systematic_Generation,,,PA66_Mn25k_PDI1.1,,,,,,,,,,,POLY_006366,25000,,Homopolymer,,1.1,{[]NC(=O)CCCCCC(=O)N.CCCCCC[]},PA66,,,,
Systematic_Generation,,,PA66_Mn25k_PDI1.2,,,,,,,,,,,POLY_006367,25000,,Homopolymer,,1.2,{[]NC(=O)CCCCCC(=O)N.CCCCCC[]},PA66,,,,
Systematic_Generation,,,PA66_Mn25k_PDI1.5,,,,,,,,,,,POLY_006368,25000,,Homopolymer,,1.5,{[]NC(=O)CCCCCC(=O)N.CCCCCC[]},PA66,,,,
Systematic_Generation,,,PA66_Mn25k_PDI2.0,,,,,,,,,,,POLY_006369,25000,,Homopolymer,,2.0,{[]NC(=O)CCCCCC(=O)N.CCCCCC[]},PA66,,,,
Systematic_Generation,,,PA66_Mn25k_PDI2.5,,,,,,,,,,,POLY_006370,25000,,Homopolymer,,2.5,{[]NC(=O)CCCCCC(=O)N.CCCCCC[]},PA66,,,,
Systematic_Generation,,,PA66_Mn50k_PDI1.05,,,,,,,,,,,POLY_006371,50000,,Homopolymer,,1.05,{[]NC(=O)CCCCCC(=O)N.CCCCCC[]},PA66,,,,
Systematic_Generation,,,PA66_Mn50k_PDI1.1,,,,,,,,,,,POLY_006372,50000,,Homopolymer,,1.1,{[]NC(=O)CCCCCC(=O)N.CCCCCC[]},PA66,,,,
Systematic_Generation,,,PA66_Mn50k_PDI1.2,,,,,,,,,,,POLY_006373,50000,,Homopolymer,,1.2,{[]NC(=O)CCCCCC(=O)N.CCCCCC[]},PA66,,,,
Systematic_Generation,,,PA66_Mn50k_PDI1.5,,,,,,,,,,,POLY_006374,50000,,Homopolymer,,1.5,{[]NC(=O)CCCCCC(=O)N.CCCCCC[]},PA66,,,,
Systematic_Generation,,,PA66_Mn50k_PDI2.0,,,,,,,,,,,POLY_006375,50000,,Homopolymer,,2.0,{[]NC(=O)CCCCCC(=O)N.CCCCCC[]},PA66,,,,
Systematic_Generation,,,PA66_Mn50k_PDI2.5,,,,,,,,,,,POLY_006376,50000,,Homopolymer,,2.5,{[]NC(=O)CCCCCC(=O)N.CCCCCC[]},PA66,,,,
Systematic_Generation,,,PA66_Mn75k_PDI1.05,,,,,,,,,,,POLY_006377,75000,,Homopolymer,,1.05,{[]NC(=O)CCCCCC(=O)N.CCCCCC[]},PA66,,,,
Systematic_Generation,,,PA66_Mn75k_PDI1.1,,,,,,,,,,,POLY_006378,75000,,Homopolymer,,1.1,{[]NC(=O)CCCCCC(=O)N.CCCCCC[]},PA66,,,,
Systematic_Generation,,,PA66_Mn75k_PDI1.2,,,,,,,,,,,POLY_006379,75000,,Homopolymer,,1.2,{[]NC(=O)CCCCCC(=O)N.CCCCCC[]},PA66,,,,
Systematic_Generation,,,PA66_Mn75k_PDI1.5,,,,,,,,,,,POLY_006380,75000,,Homopolymer,,1.5,{[]NC(=O)CCCCCC(=O)N.CCCCCC[]},PA66,,,,
Systematic_Generation,,,PA66_Mn75k_PDI2.0,,,,,,,,,,,POLY_006381,75000,,Homopolymer,,2.0,{[]NC(=O)CCCCCC(=O)N.CCCCCC[]},PA66,,,,
Systematic_Generation,,,PA66_Mn75k_PDI2.5,,,,,,,,,,,POLY_006382,75000,,Homopolymer,,2.5,{[]NC(=O)CCCCCC(=O)N.CCCCCC[]},PA66,,,,
Systematic_Generation,,,PA66_Mn100k_PDI1.05,,,,,,,,,,,POLY_006383,100000,,Homopolymer,,1.05,{[]NC(=O)CCCCCC(=O)N.CCCCCC[]},PA66,,,,
Systematic_Generation,,,PA66_Mn100k_PDI1.1,,,,,,,,,,,POLY_006384,100000,,Homopolymer,,1.1,{[]NC(=O)CCCCCC(=O)N.CCCCCC[]},PA66,,,,
Systematic_Generation,,,PA66_Mn100k_PDI1.2,,,,,,,,,,,POLY_006385,100000,,Homopolymer,,1.2,{[]NC(=O)CCCCCC(=O)N.CCCCCC[]},PA66,,,,
Systematic_Generation,,,PA66_Mn100k_PDI1.5,,,,,,,,,,,POLY_006386,100000,,Homopolymer,,1.5,{[]NC(=O)CCCCCC(=O)N.CCCCCC[]},PA66,,,,
Systematic_Generation,,,PA66_Mn100k_PDI2.0,,,,,,,,,,,POLY_006387,100000,,Homopolymer,,2.0,{[]NC(=O)CCCCCC(=O)N.CCCCCC[]},PA66,,,,
Systematic_Generation,,,PA66_Mn100k_PDI2.5,,,,,,,,,,,POLY_006388,100000,,Homopolymer,,2.5,{[]NC(=O)CCCCCC(=O)N.CCCCCC[]},PA66,,,,
Systematic_Generation,,,PA66_Mn150k_PDI1.05,,,,,,,,,,,POLY_006389,150000,,Homopolymer,,1.05,{[]NC(=O)CCCCCC(=O)N.CCCCCC[]},PA66,,,,
Systematic_Generation,,,PA66_Mn150k_PDI1.1,,,,,,,,,,,POLY_006390,150000,,Homopolymer,,1.1,{[]NC(=O)CCCCCC(=O)N.CCCCCC[]},PA66,,,,
Systematic_Generation,,,PA66_Mn150k_PDI1.2,,,,,,,,,,,POLY_006391,150000,,Homopolymer,,1.2,{[]NC(=O)CCCCCC(=O)N.CCCCCC[]},PA66,,,,
Systematic_Generation,,,PA66_Mn150k_PDI1.5,,,,,,,,,,,POLY_006392,150000,,Homopolymer,,1.5,{[]NC(=O)CCCCCC(=O)N.CCCCCC[]},PA66,,,,
Systematic_Generation,,,PA66_Mn150k_PDI2.0,,,,,,,,,,,POLY_006393,150000,,Homopolymer,,2.0,{[]NC(=O)CCCCCC(=O)N.CCCCCC[]},PA66,,,,
Systematic_Generation,,,PA66_Mn150k_PDI2.5,,,,,,,,,,,POLY_006394,150000,,Homopolymer,,2.5,{[]NC(=O)CCCCCC(=O)N.CCCCCC[]},PA66,,,,
Systematic_Generation,,,PA66_Mn200k_PDI1.05,,,,,,,,,,,POLY_006395,200000,,Homopolymer,,1.05,{[]NC(=O)CCCCCC(=O)N.CCCCCC[]},PA66,,,,
Systematic_Generation,,,PA66_Mn200k_PDI1.1,,,,,,,,,,,POLY_006396,200000,,Homopolymer,,1.1,{[]NC(=O)CCCCCC(=O)N.CCCCCC[]},PA66,,,,
Systematic_Generation,,,PA66_Mn200k_PDI1.2,,,,,,,,,,,POLY_006397,200000,,Homopolymer,,1.2,{[]NC(=O)CCCCCC(=O)N.CCCCCC[]},PA66,,,,
Systematic_Generation,,,PA66_Mn200k_PDI1.5,,,,,,,,,,,POLY_006398,200000,,Homopolymer,,1.5,{[]NC(=O)CCCCCC(=O)N.CCCCCC[]},PA66,,,,
Systematic_Generation,,,PA66_Mn200k_PDI2.0,,,,,,,,,,,POLY_006399,200000,,Homopolymer,,2.0,{[]NC(=O)CCCCCC(=O)N.CCCCCC[]},PA66,,,,
Systematic_Generation,,,PA66_Mn200k_PDI2.5,,,,,,,,,,,POLY_006400,200000,,Homopolymer,,2.5,{[]NC(=O)CCCCCC(=O)N.CCCCCC[]},PA66,,,,
Systematic_Generation,,,PA66_Mn300k_PDI1.05,,,,,,,,,,,POLY_006401,300000,,Homopolymer,,1.05,{[]NC(=O)CCCCCC(=O)N.CCCCCC[]},PA66,,,,
Systematic_Generation,,,PA66_Mn300k_PDI1.1,,,,,,,,,,,POLY_006402,300000,,Homopolymer,,1.1,{[]NC(=O)CCCCCC(=O)N.CCCCCC[]},PA66,,,,
Systematic_Generation,,,PA66_Mn300k_PDI1.2,,,,,,,,,,,POLY_006403,300000,,Homopolymer,,1.2,{[]NC(=O)CCCCCC(=O)N.CCCCCC[]},PA66,,,,
Systematic_Generation,,,PA66_Mn300k_PDI1.5,,,,,,,,,,,POLY_006404,300000,,Homopolymer,,1.5,{[]NC(=O)CCCCCC(=O)N.CCCCCC[]},PA66,,,,
Systematic_Generation,,,PA66_Mn300k_PDI2.0,,,,,,,,,,,POLY_006405,300000,,Homopolymer,,2.0,{[]NC(=O)CCCCCC(=O)N.CCCCCC[]},PA66,,,,
Systematic_Generation,,,PA66_Mn300k_PDI2.5,,,,,,,,,,,POLY_006406,300000,,Homopolymer,,2.5,{[]NC(=O)CCCCCC(=O)N.CCCCCC[]},PA66,,,,
Systematic_Generation,,,PA66_Mn500k_PDI1.05,,,,,,,,,,,POLY_006407,500000,,Homopolymer,,1.05,{[]NC(=O)CCCCCC(=O)N.CCCCCC[]},PA66,,,,
Systematic_Generation,,,PA66_Mn500k_PDI1.1,,,,,,,,,,,POLY_006408,500000,,Homopolymer,,1.1,{[]NC(=O)CCCCCC(=O)N.CCCCCC[]},PA66,,,,
Systematic_Generation,,,PA66_Mn500k_PDI1.2,,,,,,,,,,,POLY_006409,500000,,Homopolymer,,1.2,{[]NC(=O)CCCCCC(=O)N.CCCCCC[]},PA66,,,,
Systematic_Generation,,,PA66_Mn500k_PDI1.5,,,,,,,,,,,POLY_006410,500000,,Homopolymer,,1.5,{[]NC(=O)CCCCCC(=O)N.CCCCCC[]},PA66,,,,
Systematic_Generation,,,PA66_Mn500k_PDI2.0,,,,,,,,,,,POLY_006411,500000,,Homopolymer,,2.0,{[]NC(=O)CCCCCC(=O)N.CCCCCC[]},PA66,,,,
Systematic_Generation,,,PA66_Mn500k_PDI2.5,,,,,,,,,,,POLY_006412,500000,,Homopolymer,,2.5,{[]NC(=O)CCCCCC(=O)N.CCCCCC[]},PA66,,,,
Systematic_Generation,,,PA66_Mn750k_PDI1.05,,,,,,,,,,,POLY_006413,750000,,Homopolymer,,1.05,{[]NC(=O)CCCCCC(=O)N.CCCCCC[]},PA66,,,,
Systematic_Generation,,,PA66_Mn750k_PDI1.1,,,,,,,,,,,POLY_006414,750000,,Homopolymer,,1.1,{[]NC(=O)CCCCCC(=O)N.CCCCCC[]},PA66,,,,
Systematic_Generation,,,PA66_Mn750k_PDI1.2,,,,,,,,,,,POLY_006415,750000,,Homopolymer,,1.2,{[]NC(=O)CCCCCC(=O)N.CCCCCC[]},PA66,,,,
Systematic_Generation,,,PA66_Mn750k_PDI1.5,,,,,,,,,,,POLY_006416,750000,,Homopolymer,,1.5,{[]NC(=O)CCCCCC(=O)N.CCCCCC[]},PA66,,,,
Systematic_Generation,,,PA66_Mn750k_PDI2.0,,,,,,,,,,,POLY_006417,750000,,Homopolymer,,2.0,{[]NC(=O)CCCCCC(=O)N.CCCCCC[]},PA66,,,,
Systematic_Generation,,,PA66_Mn750k_PDI2.5,,,,,,,,,,,POLY_006418,750000,,Homopolymer,,2.5,{[]NC(=O)CCCCCC(=O)N.CCCCCC[]},PA66,,,,
Systematic_Generation,,,PA66_Mn1000k_PDI1.05,,,,,,,,,,,POLY_006419,1000000,,Homopolymer,,1.05,{[]NC(=O)CCCCCC(=O)N.CCCCCC[]},PA66,,,,
Systematic_Generation,,,PA66_Mn1000k_PDI1.1,,,,,,,,,,,POLY_006420,1000000,,Homopolymer,,1.1,{[]NC(=O)CCCCCC(=O)N.CCCCCC[]},PA66,,,,
Systematic_Generation,,,PA66_Mn1000k_PDI1.2,,,,,,,,,,,POLY_006421,1000000,,Homopolymer,,1.2,{[]NC(=O)CCCCCC(=O)N.CCCCCC[]},PA66,,,,
Systematic_Generation,,,PA66_Mn1000k_PDI1.5,,,,,,,,,,,POLY_006422,1000000,,Homopolymer,,1.5,{[]NC(=O)CCCCCC(=O)N.CCCCCC[]},PA66,,,,
Systematic_Generation,,,PA66_Mn1000k_PDI2.0,,,,,,,,,,,POLY_006423,1000000,,Homopolymer,,2.0,{[]NC(=O)CCCCCC(=O)N.CCCCCC[]},PA66,,,,
Systematic_Generation,,,PA66_Mn1000k_PDI2.5,,,,,,,,,,,POLY_006424,1000000,,Homopolymer,,2.5,{[]NC(=O)CCCCCC(=O)N.CCCCCC[]},PA66,,,,
Systematic_Generation,,,PAN_Mn5k_PDI1.05,,,,,,,,,,,POLY_006425,5000,,Homopolymer,,1.05,{[]CC(C#N)[]},PAN,,,,
Systematic_Generation,,,PAN_Mn5k_PDI1.1,,,,,,,,,,,POLY_006426,5000,,Homopolymer,,1.1,{[]CC(C#N)[]},PAN,,,,
Systematic_Generation,,,PAN_Mn5k_PDI1.2,,,,,,,,,,,POLY_006427,5000,,Homopolymer,,1.2,{[]CC(C#N)[]},PAN,,,,
Systematic_Generation,,,PAN_Mn5k_PDI1.5,,,,,,,,,,,POLY_006428,5000,,Homopolymer,,1.5,{[]CC(C#N)[]},PAN,,,,
Systematic_Generation,,,PAN_Mn5k_PDI2.0,,,,,,,,,,,POLY_006429,5000,,Homopolymer,,2.0,{[]CC(C#N)[]},PAN,,,,
Systematic_Generation,,,PAN_Mn5k_PDI2.5,,,,,,,,,,,POLY_006430,5000,,Homopolymer,,2.5,{[]CC(C#N)[]},PAN,,,,
Systematic_Generation,,,PAN_Mn10k_PDI1.05,,,,,,,,,,,POLY_006431,10000,,Homopolymer,,1.05,{[]CC(C#N)[]},PAN,,,,
Systematic_Generation,,,PAN_Mn10k_PDI1.1,,,,,,,,,,,POLY_006432,10000,,Homopolymer,,1.1,{[]CC(C#N)[]},PAN,,,,
Systematic_Generation,,,PAN_Mn10k_PDI1.2,,,,,,,,,,,POLY_006433,10000,,Homopolymer,,1.2,{[]CC(C#N)[]},PAN,,,,
Systematic_Generation,,,PAN_Mn10k_PDI1.5,,,,,,,,,,,POLY_006434,10000,,Homopolymer,,1.5,{[]CC(C#N)[]},PAN,,,,
Systematic_Generation,,,PAN_Mn10k_PDI2.0,,,,,,,,,,,POLY_006435,10000,,Homopolymer,,2.0,{[]CC(C#N)[]},PAN,,,,
Systematic_Generation,,,PAN_Mn10k_PDI2.5,,,,,,,,,,,POLY_006436,10000,,Homopolymer,,2.5,{[]CC(C#N)[]},PAN,,,,
Systematic_Generation,,,PAN_Mn25k_PDI1.05,,,,,,,,,,,POLY_006437,25000,,Homopolymer,,1.05,{[]CC(C#N)[]},PAN,,,,
Systematic_Generation,,,PAN_Mn25k_PDI1.1,,,,,,,,,,,POLY_006438,25000,,Homopolymer,,1.1,{[]CC(C#N)[]},PAN,,,,
Systematic_Generation,,,PAN_Mn25k_PDI1.2,,,,,,,,,,,POLY_006439,25000,,Homopolymer,,1.2,{[]CC(C#N)[]},PAN,,,,
Systematic_Generation,,,PAN_Mn25k_PDI1.5,,,,,,,,,,,POLY_006440,25000,,Homopolymer,,1.5,{[]CC(C#N)[]},PAN,,,,
Systematic_Generation,,,PAN_Mn25k_PDI2.0,,,,,,,,,,,POLY_006441,25000,,Homopolymer,,2.0,{[]CC(C#N)[]},PAN,,,,
Systematic_Generation,,,PAN_Mn25k_PDI2.5,,,,,,,,,,,POLY_006442,25000,,Homopolymer,,2.5,{[]CC(C#N)[]},PAN,,,,
Systematic_Generation,,,PAN_Mn50k_PDI1.05,,,,,,,,,,,POLY_006443,50000,,Homopolymer,,1.05,{[]CC(C#N)[]},PAN,,,,
Systematic_Generation,,,PAN_Mn50k_PDI1.1,,,,,,,,,,,POLY_006444,50000,,Homopolymer,,1.1,{[]CC(C#N)[]},PAN,,,,
Systematic_Generation,,,PAN_Mn50k_PDI1.2,,,,,,,,,,,POLY_006445,50000,,Homopolymer,,1.2,{[]CC(C#N)[]},PAN,,,,
Systematic_Generation,,,PAN_Mn50k_PDI1.5,,,,,,,,,,,POLY_006446,50000,,Homopolymer,,1.5,{[]CC(C#N)[]},PAN,,,,
Systematic_Generation,,,PAN_Mn50k_PDI2.0,,,,,,,,,,,POLY_006447,50000,,Homopolymer,,2.0,{[]CC(C#N)[]},PAN,,,,
Systematic_Generation,,,PAN_Mn50k_PDI2.5,,,,,,,,,,,POLY_006448,50000,,Homopolymer,,2.5,{[]CC(C#N)[]},PAN,,,,
Systematic_Generation,,,PAN_Mn75k_PDI1.05,,,,,,,,,,,POLY_006449,75000,,Homopolymer,,1.05,{[]CC(C#N)[]},PAN,,,,
Systematic_Generation,,,PAN_Mn75k_PDI1.1,,,,,,,,,,,POLY_006450,75000,,Homopolymer,,1.1,{[]CC(C#N)[]},PAN,,,,
Systematic_Generation,,,PAN_Mn75k_PDI1.2,,,,,,,,,,,POLY_006451,75000,,Homopolymer,,1.2,{[]CC(C#N)[]},PAN,,,,
Systematic_Generation,,,PAN_Mn75k_PDI1.5,,,,,,,,,,,POLY_006452,75000,,Homopolymer,,1.5,{[]CC(C#N)[]},PAN,,,,
Systematic_Generation,,,PAN_Mn75k_PDI2.0,,,,,,,,,,,POLY_006453,75000,,Homopolymer,,2.0,{[]CC(C#N)[]},PAN,,,,
Systematic_Generation,,,PAN_Mn75k_PDI2.5,,,,,,,,,,,POLY_006454,75000,,Homopolymer,,2.5,{[]CC(C#N)[]},PAN,,,,
Systematic_Generation,,,PAN_Mn100k_PDI1.05,,,,,,,,,,,POLY_006455,100000,,Homopolymer,,1.05,{[]CC(C#N)[]},PAN,,,,
Systematic_Generation,,,PAN_Mn100k_PDI1.1,,,,,,,,,,,POLY_006456,100000,,Homopolymer,,1.1,{[]CC(C#N)[]},PAN,,,,
Systematic_Generation,,,PAN_Mn100k_PDI1.2,,,,,,,,,,,POLY_006457,100000,,Homopolymer,,1.2,{[]CC(C#N)[]},PAN,,,,
Systematic_Generation,,,PAN_Mn100k_PDI1.5,,,,,,,,,,,POLY_006458,100000,,Homopolymer,,1.5,{[]CC(C#N)[]},PAN,,,,
Systematic_Generation,,,PAN_Mn100k_PDI2.0,,,,,,,,,,,POLY_006459,100000,,Homopolymer,,2.0,{[]CC(C#N)[]},PAN,,,,
Systematic_Generation,,,PAN_Mn100k_PDI2.5,,,,,,,,,,,POLY_006460,100000,,Homopolymer,,2.5,{[]CC(C#N)[]},PAN,,,,
Systematic_Generation,,,PAN_Mn150k_PDI1.05,,,,,,,,,,,POLY_006461,150000,,Homopolymer,,1.05,{[]CC(C#N)[]},PAN,,,,
Systematic_Generation,,,PAN_Mn150k_PDI1.1,,,,,,,,,,,POLY_006462,150000,,Homopolymer,,1.1,{[]CC(C#N)[]},PAN,,,,
Systematic_Generation,,,PAN_Mn150k_PDI1.2,,,,,,,,,,,POLY_006463,150000,,Homopolymer,,1.2,{[]CC(C#N)[]},PAN,,,,
Systematic_Generation,,,PAN_Mn150k_PDI1.5,,,,,,,,,,,POLY_006464,150000,,Homopolymer,,1.5,{[]CC(C#N)[]},PAN,,,,
Systematic_Generation,,,PAN_Mn150k_PDI2.0,,,,,,,,,,,POLY_006465,150000,,Homopolymer,,2.0,{[]CC(C#N)[]},PAN,,,,
Systematic_Generation,,,PAN_Mn150k_PDI2.5,,,,,,,,,,,POLY_006466,150000,,Homopolymer,,2.5,{[]CC(C#N)[]},PAN,,,,
Systematic_Generation,,,PAN_Mn200k_PDI1.05,,,,,,,,,,,POLY_006467,200000,,Homopolymer,,1.05,{[]CC(C#N)[]},PAN,,,,
Systematic_Generation,,,PAN_Mn200k_PDI1.1,,,,,,,,,,,POLY_006468,200000,,Homopolymer,,1.1,{[]CC(C#N)[]},PAN,,,,
Systematic_Generation,,,PAN_Mn200k_PDI1.2,,,,,,,,,,,POLY_006469,200000,,Homopolymer,,1.2,{[]CC(C#N)[]},PAN,,,,
Systematic_Generation,,,PAN_Mn200k_PDI1.5,,,,,,,,,,,POLY_006470,200000,,Homopolymer,,1.5,{[]CC(C#N)[]},PAN,,,,
Systematic_Generation,,,PAN_Mn200k_PDI2.0,,,,,,,,,,,POLY_006471,200000,,Homopolymer,,2.0,{[]CC(C#N)[]},PAN,,,,
Systematic_Generation,,,PAN_Mn200k_PDI2.5,,,,,,,,,,,POLY_006472,200000,,Homopolymer,,2.5,{[]CC(C#N)[]},PAN,,,,
Systematic_Generation,,,PAN_Mn300k_PDI1.05,,,,,,,,,,,POLY_006473,300000,,Homopolymer,,1.05,{[]CC(C#N)[]},PAN,,,,
Systematic_Generation,,,PAN_Mn300k_PDI1.1,,,,,,,,,,,POLY_006474,300000,,Homopolymer,,1.1,{[]CC(C#N)[]},PAN,,,,
Systematic_Generation,,,PAN_Mn300k_PDI1.2,,,,,,,,,,,POLY_006475,300000,,Homopolymer,,1.2,{[]CC(C#N)[]},PAN,,,,
Systematic_Generation,,,PAN_Mn300k_PDI1.5,,,,,,,,,,,POLY_006476,300000,,Homopolymer,,1.5,{[]CC(C#N)[]},PAN,,,,
Systematic_Generation,,,PAN_Mn300k_PDI2.0,,,,,,,,,,,POLY_006477,300000,,Homopolymer,,2.0,{[]CC(C#N)[]},PAN,,,,