source,n_elements,doping_concentration,name,termination,space_group,doping_level,volume_fraction,weight_percent,lattice_c,temperature,reinforcement,matrix,layers,material_id,molecular_weight,deposition_method,type,lattice_b,pdi,formula,composition,lattice_a,thickness_nm,dopant,substrate
Systematic_Generation,,,Ti3N2T2,OH,P63/mmc,,,,22.267,,,,,MXENE_005639,,,MXene_2D,,,Ti3N2T2,"Ti:3, N:2, Termination:OH",3.117,,,
Systematic_Generation,,,Ti3N2T1,F,P63/mmc,,,,19.879,,,,,MXENE_005640,,,MXene_2D,,,Ti3N2T1,"Ti:3, N:2, Termination:F",3.146,,,
Systematic_Generation,,,Ti3N2T2,Cl,P63/mmc,,,,19.824,,,,,MXENE_005641,,,MXene_2D,,,Ti3N2T2,"Ti:3, N:2, Termination:Cl",3.161,,,
Systematic_Generation,,,Ti4N3T1,O,P63/mmc,,,,18.17,,,,,MXENE_005642,,,MXene_2D,,,Ti4N3T1,"Ti:4, N:3, Termination:O",3.029,,,
Systematic_Generation,,,Ti4N3T2,OH,P63/mmc,,,,20.03,,,,,MXENE_005643,,,MXene_2D,,,Ti4N3T2,"Ti:4, N:3, Termination:OH",3.008,,,
Systematic_Generation,,,Ti4N3T1,F,P63/mmc,,,,19.738,,,,,MXENE_005644,,,MXene_2D,,,Ti4N3T1,"Ti:4, N:3, Termination:F",3.125,,,
Systematic_Generation,,,Ti4N3T2,Cl,P63/mmc,,,,18.179,,,,,MXENE_005645,,,MXene_2D,,,Ti4N3T2,"Ti:4, N:3, Termination:Cl",3.012,,,
Systematic_Generation,,,V2C1T1,O,P63/mmc,,,,22.353,,,,,MXENE_005646,,,MXene_2D,,,V2C1T1,"V:2, C:1, Termination:O",3.141,,,
Systematic_Generation,,,V2C1T2,OH,P63/mmc,,,,22.564,,,,,MXENE_005647,,,MXene_2D,,,V2C1T2,"V:2, C:1, Termination:OH",3.036,,,
Systematic_Generation,,,V2C1T1,F,P63/mmc,,,,20.807,,,,,MXENE_005648,,,MXene_2D,,,V2C1T1,"V:2, C:1, Termination:F",3.102,,,
Systematic_Generation,,,V2C1T2,Cl,P63/mmc,,,,18.125,,,,,MXENE_005649,,,MXene_2D,,,V2C1T2,"V:2, C:1, Termination:Cl",3.175,,,
Systematic_Generation,,,V3C2T1,O,P63/mmc,,,,22.207,,,,,MXENE_005650,,,MXene_2D,,,V3C2T1,"V:3, C:2, Termination:O",3.03,,,
Systematic_Generation,,,V3C2T2,OH,P63/mmc,,,,22.929,,,,,MXENE_005651,,,MXene_2D,,,V3C2T2,"V:3, C:2, Termination:OH",3.149,,,
Systematic_Generation,,,V3C2T1,F,P63/mmc,,,,20.012,,,,,MXENE_005652,,,MXene_2D,,,V3C2T1,"V:3, C:2, Termination:F",3.043,,,
Systematic_Generation,,,V3C2T2,Cl,P63/mmc,,,,19.17,,,,,MXENE_005653,,,MXene_2D,,,V3C2T2,"V:3, C:2, Termination:Cl",3.056,,,
Systematic_Generation,,,V4C3T1,O,P63/mmc,,,,19.812,,,,,MXENE_005654,,,MXene_2D,,,V4C3T1,"V:4, C:3, Termination:O",3.152,,,
Systematic_Generation,,,V4C3T2,OH,P63/mmc,,,,18.797,,,,,MXENE_005655,,,MXene_2D,,,V4C3T2,"V:4, C:3, Termination:OH",3.077,,,
Systematic_Generation,,,V4C3T1,F,P63/mmc,,,,22.826,,,,,MXENE_005656,,,MXene_2D,,,V4C3T1,"V:4, C:3, Termination:F",3.182,,,
Systematic_Generation,,,V4C3T2,Cl,P63/mmc,,,,20.632,,,,,MXENE_005657,,,MXene_2D,,,V4C3T2,"V:4, C:3, Termination:Cl",3.189,,,
Systematic_Generation,,,V2N1T1,O,P63/mmc,,,,22.501,,,,,MXENE_005658,,,MXene_2D,,,V2N1T1,"V:2, N:1, Termination:O",3.107,,,
Systematic_Generation,,,V2N1T2,OH,P63/mmc,,,,18.645,,,,,MXENE_005659,,,MXene_2D,,,V2N1T2,"V:2, N:1, Termination:OH",3.19,,,
Systematic_Generation,,,V2N1T1,F,P63/mmc,,,,19.622,,,,,MXENE_005660,,,MXene_2D,,,V2N1T1,"V:2, N:1, Termination:F",3.143,,,
Systematic_Generation,,,V2N1T2,Cl,P63/mmc,,,,21.596,,,,,MXENE_005661,,,MXene_2D,,,V2N1T2,"V:2, N:1, Termination:Cl",3.157,,,
Systematic_Generation,,,V3N2T1,O,P63/mmc,,,,20.35,,,,,MXENE_005662,,,MXene_2D,,,V3N2T1,"V:3, N:2, Termination:O",3.067,,,
Systematic_Generation,,,V3N2T2,OH,P63/mmc,,,,21.875,,,,,MXENE_005663,,,MXene_2D,,,V3N2T2,"V:3, N:2, Termination:OH",3.197,,,
Systematic_Generation,,,V3N2T1,F,P63/mmc,,,,19.141,,,,,MXENE_005664,,,MXene_2D,,,V3N2T1,"V:3, N:2, Termination:F",3.189,,,
Systematic_Generation,,,V3N2T2,Cl,P63/mmc,,,,19.372,,,,,MXENE_005665,,,MXene_2D,,,V3N2T2,"V:3, N:2, Termination:Cl",3.143,,,
Systematic_Generation,,,V4N3T1,O,P63/mmc,,,,20.162,,,,,MXENE_005666,,,MXene_2D,,,V4N3T1,"V:4, N:3, Termination:O",3.151,,,
Systematic_Generation,,,V4N3T2,OH,P63/mmc,,,,22.254,,,,,MXENE_005667,,,MXene_2D,,,V4N3T2,"V:4, N:3, Termination:OH",3.003,,,
Systematic_Generation,,,V4N3T1,F,P63/mmc,,,,19.531,,,,,MXENE_005668,,,MXene_2D,,,V4N3T1,"V:4, N:3, Termination:F",3.077,,,
Systematic_Generation,,,V4N3T2,Cl,P63/mmc,,,,18.305,,,,,MXENE_005669,,,MXene_2D,,,V4N3T2,"V:4, N:3, Termination:Cl",3.122,,,
Systematic_Generation,,,Cr2C1T1,O,P63/mmc,,,,19.244,,,,,MXENE_005670,,,MXene_2D,,,Cr2C1T1,"Cr:2, C:1, Termination:O",3.013,,,
Systematic_Generation,,,Cr2C1T2,OH,P63/mmc,,,,22.829,,,,,MXENE_005671,,,MXene_2D,,,Cr2C1T2,"Cr:2, C:1, Termination:OH",3.135,,,
Systematic_Generation,,,Cr2C1T1,F,P63/mmc,,,,21.654,,,,,MXENE_005672,,,MXene_2D,,,Cr2C1T1,"Cr:2, C:1, Termination:F",3.145,,,
Systematic_Generation,,,Cr2C1T2,Cl,P63/mmc,,,,21.149,,,,,MXENE_005673,,,MXene_2D,,,Cr2C1T2,"Cr:2, C:1, Termination:Cl",3.056,,,
Systematic_Generation,,,Cr3C2T1,O,P63/mmc,,,,20.531,,,,,MXENE_005674,,,MXene_2D,,,Cr3C2T1,"Cr:3, C:2, Termination:O",3.013,,,
Systematic_Generation,,,Cr3C2T2,OH,P63/mmc,,,,22.759,,,,,MXENE_005675,,,MXene_2D,,,Cr3C2T2,"Cr:3, C:2, Termination:OH",3.011,,,
Systematic_Generation,,,Cr3C2T1,F,P63/mmc,,,,21.005,,,,,MXENE_005676,,,MXene_2D,,,Cr3C2T1,"Cr:3, C:2, Termination:F",3.071,,,
Systematic_Generation,,,Cr3C2T2,Cl,P63/mmc,,,,21.609,,,,,MXENE_005677,,,MXene_2D,,,Cr3C2T2,"Cr:3, C:2, Termination:Cl",3.025,,,
Systematic_Generation,,,Cr4C3T1,O,P63/mmc,,,,18.968,,,,,MXENE_005678,,,MXene_2D,,,Cr4C3T1,"Cr:4, C:3, Termination:O",3.029,,,
Systematic_Generation,,,Cr4C3T2,OH,P63/mmc,,,,19.226,,,,,MXENE_005679,,,MXene_2D,,,Cr4C3T2,"Cr:4, C:3, Termination:OH",3.057,,,
Systematic_Generation,,,Cr4C3T1,F,P63/mmc,,,,21.928,,,,,MXENE_005680,,,MXene_2D,,,Cr4C3T1,"Cr:4, C:3, Termination:F",3.056,,,
Systematic_Generation,,,Cr4C3T2,Cl,P63/mmc,,,,20.902,,,,,MXENE_005681,,,MXene_2D,,,Cr4C3T2,"Cr:4, C:3, Termination:Cl",3.176,,,
Systematic_Generation,,,Cr2N1T1,O,P63/mmc,,,,20.568,,,,,MXENE_005682,,,MXene_2D,,,Cr2N1T1,"Cr:2, N:1, Termination:O",3.069,,,
Systematic_Generation,,,Cr2N1T2,OH,P63/mmc,,,,19.33,,,,,MXENE_005683,,,MXene_2D,,,Cr2N1T2,"Cr:2, N:1, Termination:OH",3.096,,,
Systematic_Generation,,,Cr2N1T1,F,P63/mmc,,,,21.079,,,,,MXENE_005684,,,MXene_2D,,,Cr2N1T1,"Cr:2, N:1, Termination:F",3.067,,,
Systematic_Generation,,,Cr2N1T2,Cl,P63/mmc,,,,21.46,,,,,MXENE_005685,,,MXene_2D,,,Cr2N1T2,"Cr:2, N:1, Termination:Cl",3.026,,,
Systematic_Generation,,,Cr3N2T1,O,P63/mmc,,,,20.904,,,,,MXENE_005686,,,MXene_2D,,,Cr3N2T1,"Cr:3, N:2, Termination:O",3.189,,,
Systematic_Generation,,,Cr3N2T2,OH,P63/mmc,,,,19.004,,,,,MXENE_005687,,,MXene_2D,,,Cr3N2T2,"Cr:3, N:2, Termination:OH",3.176,,,
Systematic_Generation,,,Cr3N2T1,F,P63/mmc,,,,20.901,,,,,MXENE_005688,,,MXene_2D,,,Cr3N2T1,"Cr:3, N:2, Termination:F",3.046,,,
Systematic_Generation,,,Cr3N2T2,Cl,P63/mmc,,,,18.132,,,,,MXENE_005689,,,MXene_2D,,,Cr3N2T2,"Cr:3, N:2, Termination:Cl",3.156,,,
Systematic_Generation,,,Cr4N3T1,O,P63/mmc,,,,18.499,,,,,MXENE_005690,,,MXene_2D,,,Cr4N3T1,"Cr:4, N:3, Termination:O",3.004,,,
Systematic_Generation,,,Cr4N3T2,OH,P63/mmc,,,,21.208,,,,,MXENE_005691,,,MXene_2D,,,Cr4N3T2,"Cr:4, N:3, Termination:OH",3.02,,,
Systematic_Generation,,,Cr4N3T1,F,P63/mmc,,,,20.426,,,,,MXENE_005692,,,MXene_2D,,,Cr4N3T1,"Cr:4, N:3, Termination:F",3.188,,,
Systematic_Generation,,,Cr4N3T2,Cl,P63/mmc,,,,18.673,,,,,MXENE_005693,,,MXene_2D,,,Cr4N3T2,"Cr:4, N:3, Termination:Cl",3.048,,,
Systematic_Generation,,,Nb2C1T1,O,P63/mmc,,,,22.47,,,,,MXENE_005694,,,MXene_2D,,,Nb2C1T1,"Nb:2, C:1, Termination:O",3.099,,,
Systematic_Generation,,,Nb2C1T2,OH,P63/mmc,,,,22.321,,,,,MXENE_005695,,,MXene_2D,,,Nb2C1T2,"Nb:2, C:1, Termination:OH",3.2,,,
Systematic_Generation,,,Nb2C1T1,F,P63/mmc,,,,21.822,,,,,MXENE_005696,,,MXene_2D,,,Nb2C1T1,"Nb:2, C:1, Termination:F",3.065,,,
Systematic_Generation,,,Nb2C1T2,Cl,P63/mmc,,,,20.564,,,,,MXENE_005697,,,MXene_2D,,,Nb2C1T2,"Nb:2, C:1, Termination:Cl",3.086,,,
Systematic_Generation,,,Nb3C2T1,O,P63/mmc,,,,21.002,,,,,MXENE_005698,,,MXene_2D,,,Nb3C2T1,"Nb:3, C:2, Termination:O",3.019,,,
Systematic_Generation,,,Nb3C2T2,OH,P63/mmc,,,,19.182,,,,,MXENE_005699,,,MXene_2D,,,Nb3C2T2,"Nb:3, C:2, Termination:OH",3.06,,,
Systematic_Generation,,,Nb3C2T1,F,P63/mmc,,,,20.089,,,,,MXENE_005700,,,MXene_2D,,,Nb3C2T1,"Nb:3, C:2, Termination:F",3.117,,,
Systematic_Generation,,,Nb3C2T2,Cl,P63/mmc,,,,19.483,,,,,MXENE_005701,,,MXene_2D,,,Nb3C2T2,"Nb:3, C:2, Termination:Cl",3.075,,,
Systematic_Generation,,,Nb4C3T1,O,P63/mmc,,,,22.773,,,,,MXENE_005702,,,MXene_2D,,,Nb4C3T1,"Nb:4, C:3, Termination:O",3.102,,,
Systematic_Generation,,,Nb4C3T2,OH,P63/mmc,,,,22.303,,,,,MXENE_005703,,,MXene_2D,,,Nb4C3T2,"Nb:4, C:3, Termination:OH",3.002,,,
Systematic_Generation,,,Nb4C3T1,F,P63/mmc,,,,20.308,,,,,MXENE_005704,,,MXene_2D,,,Nb4C3T1,"Nb:4, C:3, Termination:F",3.113,,,
Systematic_Generation,,,Nb4C3T2,Cl,P63/mmc,,,,21.791,,,,,MXENE_005705,,,MXene_2D,,,Nb4C3T2,"Nb:4, C:3, Termination:Cl",3.127,,,
Systematic_Generation,,,Nb2N1T1,O,P63/mmc,,,,22.905,,,,,MXENE_005706,,,MXene_2D,,,Nb2N1T1,"Nb:2, N:1, Termination:O",3.012,,,
Systematic_Generation,,,Nb2N1T2,OH,P63/mmc,,,,19.784,,,,,MXENE_005707,,,MXene_2D,,,Nb2N1T2,"Nb:2, N:1, Termination:OH",3.031,,,
Systematic_Generation,,,Nb2N1T1,F,P63/mmc,,,,19.467,,,,,MXENE_005708,,,MXene_2D,,,Nb2N1T1,"Nb:2, N:1, Termination:F",3.018,,,
Systematic_Generation,,,Nb2N1T2,Cl,P63/mmc,,,,19.981,,,,,MXENE_005709,,,MXene_2D,,,Nb2N1T2,"Nb:2, N:1, Termination:Cl",3.127,,,
Systematic_Generation,,,Nb3N2T1,O,P63/mmc,,,,19.139,,,,,MXENE_005710,,,MXene_2D,,,Nb3N2T1,"Nb:3, N:2, Termination:O",3.115,,,
Systematic_Generation,,,Nb3N2T2,OH,P63/mmc,,,,22.69,,,,,MXENE_005711,,,MXene_2D,,,Nb3N2T2,"Nb:3, N:2, Termination:OH",3.182,,,
Systematic_Generation,,,Nb3N2T1,F,P63/mmc,,,,20.737,,,,,MXENE_005712,,,MXene_2D,,,Nb3N2T1,"Nb:3, N:2, Termination:F",3.032,,,
Systematic_Generation,,,Nb3N2T2,Cl,P63/mmc,,,,21.595,,,,,MXENE_005713,,,MXene_2D,,,Nb3N2T2,"Nb:3, N:2, Termination:Cl",3.129,,,
Systematic_Generation,,,Nb4N3T1,O,P63/mmc,,,,21.778,,,,,MXENE_005714,,,MXene_2D,,,Nb4N3T1,"Nb:4, N:3, Termination:O",3.11,,,
Systematic_Generation,,,Nb4N3T2,OH,P63/mmc,,,,19.622,,,,,MXENE_005715,,,MXene_2D,,,Nb4N3T2,"Nb:4, N:3, Termination:OH",3.1,,,
Systematic_Generation,,,Nb4N3T1,F,P63/mmc,,,,21.779,,,,,MXENE_005716,,,MXene_2D,,,Nb4N3T1,"Nb:4, N:3, Termination:F",3.027,,,
Systematic_Generation,,,Nb4N3T2,Cl,P63/mmc,,,,20.768,,,,,MXENE_005717,,,MXene_2D,,,Nb4N3T2,"Nb:4, N:3, Termination:Cl",3.149,,,
Systematic_Generation,,,Mo2C1T1,O,P63/mmc,,,,19.149,,,,,MXENE_005718,,,MXene_2D,,,Mo2C1T1,"Mo:2, C:1, Termination:O",3.068,,,
Systematic_Generation,,,Mo2C1T2,OH,P63/mmc,,,,22.523,,,,,MXENE_005719,,,MXene_2D,,,Mo2C1T2,"Mo:2, C:1, Termination:OH",3.008,,,
Systematic_Generation,,,Mo2C1T1,F,P63/mmc,,,,21.694,,,,,MXENE_005720,,,MXene_2D,,,Mo2C1T1,"Mo:2, C:1, Termination:F",3.156,,,
Systematic_Generation,,,Mo2C1T2,Cl,P63/mmc,,,,21.131,,,,,MXENE_005721,,,MXene_2D,,,Mo2C1T2,"Mo:2, C:1, Termination:Cl",3.03,,,
Systematic_Generation,,,Mo3C2T1,O,P63/mmc,,,,19.754,,,,,MXENE_005722,,,MXene_2D,,,Mo3C2T1,"Mo:3, C:2, Termination:O",3.084,,,
Systematic_Generation,,,Mo3C2T2,OH,P63/mmc,,,,22.073,,,,,MXENE_005723,,,MXene_2D,,,Mo3C2T2,"Mo:3, C:2, Termination:OH",3.013,,,
Systematic_Generation,,,Mo3C2T1,F,P63/mmc,,,,18.98,,,,,MXENE_005724,,,MXene_2D,,,Mo3C2T1,"Mo:3, C:2, Termination:F",3.159,,,
Systematic_Generation,,,Mo3C2T2,Cl,P63/mmc,,,,18.943,,,,,MXENE_005725,,,MXene_2D,,,Mo3C2T2,"Mo:3, C:2, Termination:Cl",3.195,,,
Systematic_Generation,,,Mo4C3T1,O,P63/mmc,,,,19.678,,,,,MXENE_005726,,,MXene_2D,,,Mo4C3T1,"Mo:4, C:3, Termination:O",3.069,,,
Systematic_Generation,,,Mo4C3T2,OH,P63/mmc,,,,21.264,,,,,MXENE_005727,,,MXene_2D,,,Mo4C3T2,"Mo:4, C:3, Termination:OH",3.172,,,
Systematic_Generation,,,Mo4C3T1,F,P63/mmc,,,,19.961,,,,,MXENE_005728,,,MXene_2D,,,Mo4C3T1,"Mo:4, C:3, Termination:F",3.198,,,
Systematic_Generation,,,Mo4C3T2,Cl,P63/mmc,,,,18.332,,,,,MXENE_005729,,,MXene_2D,,,Mo4C3T2,"Mo:4, C:3, Termination:Cl",3.168,,,
Systematic_Generation,,,Mo2N1T1,O,P63/mmc,,,,22.999,,,,,MXENE_005730,,,MXene_2D,,,Mo2N1T1,"Mo:2, N:1, Termination:O",3.193,,,
Systematic_Generation,,,Mo2N1T2,OH,P63/mmc,,,,20.912,,,,,MXENE_005731,,,MXene_2D,,,Mo2N1T2,"Mo:2, N:1, Termination:OH",3.122,,,
Systematic_Generation,,,Mo2N1T1,F,P63/mmc,,,,19.316,,,,,MXENE_005732,,,MXene_2D,,,Mo2N1T1,"Mo:2, N:1, Termination:F",3.092,,,
Systematic_Generation,,,Mo2N1T2,Cl,P63/mmc,,,,21.803,,,,,MXENE_005733,,,MXene_2D,,,Mo2N1T2,"Mo:2, N:1, Termination:Cl",3.073,,,
Systematic_Generation,,,Mo3N2T1,O,P63/mmc,,,,20.145,,,,,MXENE_005734,,,MXene_2D,,,Mo3N2T1,"Mo:3, N:2, Termination:O",3.185,,,
Systematic_Generation,,,Mo3N2T2,OH,P63/mmc,,,,19.261,,,,,MXENE_005735,,,MXene_2D,,,Mo3N2T2,"Mo:3, N:2, Termination:OH",3.191,,,
Systematic_Generation,,,Mo3N2T1,F,P63/mmc,,,,19.121,,,,,MXENE_005736,,,MXene_2D,,,Mo3N2T1,"Mo:3, N:2, Termination:F",3.109,,,
Systematic_Generation,,,Mo3N2T2,Cl,P63/mmc,,,,20.633,,,,,MXENE_005737,,,MXene_2D,,,Mo3N2T2,"Mo:3, N:2, Termination:Cl",3.182,,,
Systematic_Generation,,,Mo4N3T1,O,P63/mmc,,,,19.518,,,,,MXENE_005738,,,MXene_2D,,,Mo4N3T1,"Mo:4, N:3, Termination:O",3.169,,,
Systematic_Generation,,,Mo4N3T2,OH,P63/mmc,,,,18.197,,,,,MXENE_005739,,,MXene_2D,,,Mo4N3T2,"Mo:4, N:3, Termination:OH",3.074,,,
Systematic_Generation,,,Mo4N3T1,F,P63/mmc,,,,21.624,,,,,MXENE_005740,,,MXene_2D,,,Mo4N3T1,"Mo:4, N:3, Termination:F",3.178,,,
Systematic_Generation,,,Mo4N3T2,Cl,P63/mmc,,,,18.216,,,,,MXENE_005741,,,MXene_2D,,,Mo4N3T2,"Mo:4, N:3, Termination:Cl",3.055,,,
Systematic_Generation,,,Ta2C1T1,O,P63/mmc,,,,19.496,,,,,MXENE_005742,,,MXene_2D,,,Ta2C1T1,"Ta:2, C:1, Termination:O",3.129,,,
Systematic_Generation,,,Ta2C1T2,OH,P63/mmc,,,,18.537,,,,,MXENE_005743,,,MXene_2D,,,Ta2C1T2,"Ta:2, C:1, Termination:OH",3.124,,,
Systematic_Generation,,,Ta2C1T1,F,P63/mmc,,,,19.109,,,,,MXENE_005744,,,MXene_2D,,,Ta2C1T1,"Ta:2, C:1, Termination:F",3.054,,,
Systematic_Generation,,,Ta2C1T2,Cl,P63/mmc,,,,19.553,,,,,MXENE_005745,,,MXene_2D,,,Ta2C1T2,"Ta:2, C:1, Termination:Cl",3.021,,,
Systematic_Generation,,,Ta3C2T1,O,P63/mmc,,,,22.427,,,,,MXENE_005746,,,MXene_2D,,,Ta3C2T1,"Ta:3, C:2, Termination:O",3.009,,,
Systematic_Generation,,,Ta3C2T2,OH,P63/mmc,,,,22.318,,,,,MXENE_005747,,,MXene_2D,,,Ta3C2T2,"Ta:3, C:2, Termination:OH",3.008,,,
Systematic_Generation,,,Ta3C2T1,F,P63/mmc,,,,22.563,,,,,MXENE_005748,,,MXene_2D,,,Ta3C2T1,"Ta:3, C:2, Termination:F",3.15,,,
Systematic_Generation,,,Ta3C2T2,Cl,P63/mmc,,,,19.621,,,,,MXENE_005749,,,MXene_2D,,,Ta3C2T2,"Ta:3, C:2, Termination:Cl",3.147,,,
Systematic_Generation,,,Ta4C3T1,O,P63/mmc,,,,21.035,,,,,MXENE_005750,,,MXene_2D,,,Ta4C3T1,"Ta:4, C:3, Termination:O",3.02,,,
Systematic_Generation,,,Ta4C3T2,OH,P63/mmc,,,,21.795,,,,,MXENE_005751,,,MXene_2D,,,Ta4C3T2,"Ta:4, C:3, Termination:OH",3.157,,,
Systematic_Generation,,,Ta4C3T1,F,P63/mmc,,,,18.174,,,,,MXENE_005752,,,MXene_2D,,,Ta4C3T1,"Ta:4, C:3, Termination:F",3.187,,,
Systematic_Generation,,,Ta4C3T2,Cl,P63/mmc,,,,22.316,,,,,MXENE_005753,,,MXene_2D,,,Ta4C3T2,"Ta:4, C:3, Termination:Cl",3.136,,,
Systematic_Generation,,,Ta2N1T1,O,P63/mmc,,,,22.409,,,,,MXENE_005754,,,MXene_2D,,,Ta2N1T1,"Ta:2, N:1, Termination:O",3.174,,,
Systematic_Generation,,,Ta2N1T2,OH,P63/mmc,,,,22.523,,,,,MXENE_005755,,,MXene_2D,,,Ta2N1T2,"Ta:2, N:1, Termination:OH",3.14,,,
Systematic_Generation,,,Ta2N1T1,F,P63/mmc,,,,22.708,,,,,MXENE_005756,,,MXene_2D,,,Ta2N1T1,"Ta:2, N:1, Termination:F",3.086,,,
Systematic_Generation,,,Ta2N1T2,Cl,P63/mmc,,,,18.701,,,,,MXENE_005757,,,MXene_2D,,,Ta2N1T2,"Ta:2, N:1, Termination:Cl",3.021,,,
Systematic_Generation,,,Ta3N2T1,O,P63/mmc,,,,19.504,,,,,MXENE_005758,,,MXene_2D,,,Ta3N2T1,"Ta:3, N:2, Termination:O",3.116,,,
Systematic_Generation,,,Ta3N2T2,OH,P63/mmc,,,,20.029,,,,,MXENE_005759,,,MXene_2D,,,Ta3N2T2,"Ta:3, N:2, Termination:OH",3.145,,,
Systematic_Generation,,,Ta3N2T1,F,P63/mmc,,,,20.377,,,,,MXENE_005760,,,MXene_2D,,,Ta3N2T1,"Ta:3, N:2, Termination:F",3.191,,,
Systematic_Generation,,,Ta3N2T2,Cl,P63/mmc,,,,20.849,,,,,MXENE_005761,,,MXene_2D,,,Ta3N2T2,"Ta:3, N:2, Termination:Cl",3.005,,,
Systematic_Generation,,,Ta4N3T1,O,P63/mmc,,,,18.416,,,,,MXENE_005762,,,MXene_2D,,,Ta4N3T1,"Ta:4, N:3, Termination:O",3.126,,,
Systematic_Generation,,,Ta4N3T2,OH,P63/mmc,,,,21.024,,,,,MXENE_005763,,,MXene_2D,,,Ta4N3T2,"Ta:4, N:3, Termination:OH",3.07,,,
Systematic_Generation,,,Ta4N3T1,F,P63/mmc,,,,18.341,,,,,MXENE_005764,,,MXene_2D,,,Ta4N3T1,"Ta:4, N:3, Termination:F",3.126,,,
Systematic_Generation,,,Ta4N3T2,Cl,P63/mmc,,,,18.363,,,,,MXENE_005765,,,MXene_2D,,,Ta4N3T2,"Ta:4, N:3, Termination:Cl",3.099,,,
Systematic_Generation,,,Zr2C1T1,O,P63/mmc,,,,21.04,,,,,MXENE_005766,,,MXene_2D,,,Zr2C1T1,"Zr:2, C:1, Termination:O",3.122,,,
Systematic_Generation,,,Zr2C1T2,OH,P63/mmc,,,,19.512,,,,,MXENE_005767,,,MXene_2D,,,Zr2C1T2,"Zr:2, C:1, Termination:OH",3.099,,,
Systematic_Generation,,,Zr2C1T1,F,P63/mmc,,,,18.869,,,,,MXENE_005768,,,MXene_2D,,,Zr2C1T1,"Zr:2, C:1, Termination:F",3.084,,,
Systematic_Generation,,,Zr2C1T2,Cl,P63/mmc,,,,18.374,,,,,MXENE_005769,,,MXene_2D,,,Zr2C1T2,"Zr:2, C:1, Termination:Cl",3.123,,,
Systematic_Generation,,,Zr3C2T1,O,P63/mmc,,,,20.542,,,,,MXENE_005770,,,MXene_2D,,,Zr3C2T1,"Zr:3, C:2, Termination:O",3.183,,,
Systematic_Generation,,,Zr3C2T2,OH,P63/mmc,,,,22.915,,,,,MXENE_005771,,,MXene_2D,,,Zr3C2T2,"Zr:3, C:2, Termination:OH",3.051,,,
Systematic_Generation,,,Zr3C2T1,F,P63/mmc,,,,20.992,,,,,MXENE_005772,,,MXene_2D,,,Zr3C2T1,"Zr:3, C:2, Termination:F",3.145,,,
Systematic_Generation,,,Zr3C2T2,Cl,P63/mmc,,,,22.186,,,,,MXENE_005773,,,MXene_2D,,,Zr3C2T2,"Zr:3, C:2, Termination:Cl",3.166,,,
Systematic_Generation,,,Zr4C3T1,O,P63/mmc,,,,21.865,,,,,MXENE_005774,,,MXene_2D,,,Zr4C3T1,"Zr:4, C:3, Termination:O",3.04,,,
Systematic_Generation,,,Zr4C3T2,OH,P63/mmc,,,,18.13,,,,,MXENE_005775,,,MXene_2D,,,Zr4C3T2,"Zr:4, C:3, Termination:OH",3.171,,,
Systematic_Generation,,,Zr4C3T1,F,P63/mmc,,,,20.87,,,,,MXENE_005776,,,MXene_2D,,,Zr4C3T1,"Zr:4, C:3, Termination:F",3.196,,,
Systematic_Generation,,,Zr4C3T2,Cl,P63/mmc,,,,22.606,,,,,MXENE_005777,,,MXene_2D,,,Zr4C3T2,"Zr:4, C:3, Termination:Cl",3.163,,,
Systematic_Generation,,,Zr2N1T1,O,P63/mmc,,,,19.737,,,,,MXENE_005778,,,MXene_2D,,,Zr2N1T1,"Zr:2, N:1, Termination:O",3.197,,,
Systematic_Generation,,,Zr2N1T2,OH,P63/mmc,,,,21.997,,,,,MXENE_005779,,,MXene_2D,,,Zr2N1T2,"Zr:2, N:1, Termination:OH",3.161,,,
Systematic_Generation,,,Zr2N1T1,F,P63/mmc,,,,21.76,,,,,MXENE_005780,,,MXene_2D,,,Zr2N1T1,"Zr:2, N:1, Termination:F",3.133,,,
Systematic_Generation,,,Zr2N1T2,Cl,P63/mmc,,,,18.66,,,,,MXENE_005781,,,MXene_2D,,,Zr2N1T2,"Zr:2, N:1, Termination:Cl",3.15,,,
Systematic_Generation,,,Zr3N2T1,O,P63/mmc,,,,18.112,,,,,MXENE_005782,,,MXene_2D,,,Zr3N2T1,"Zr:3, N:2, Termination:O",3.197,,,
Systematic_Generation,,,Zr3N2T2,OH,P63/mmc,,,,19.146,,,,,MXENE_005783,,,MXene_2D,,,Zr3N2T2,"Zr:3, N:2, Termination:OH",3.145,,,
Systematic_Generation,,,Zr3N2T1,F,P63/mmc,,,,18.435,,,,,MXENE_005784,,,MXene_2D,,,Zr3N2T1,"Zr:3, N:2, Termination:F",3.056,,,
Systematic_Generation,,,Zr3N2T2,Cl,P63/mmc,,,,21.017,,,,,MXENE_005785,,,MXene_2D,,,Zr3N2T2,"Zr:3, N:2, Termination:Cl",3.086,,,
Systematic_Generation,,,Zr4N3T1,O,P63/mmc,,,,20.593,,,,,MXENE_005786,,,MXene_2D,,,Zr4N3T1,"Zr:4, N:3, Termination:O",3.103,,,
Systematic_Generation,,,Zr4N3T2,OH,P63/mmc,,,,20.228,,,,,MXENE_005787,,,MXene_2D,,,Zr4N3T2,"Zr:4, N:3, Termination:OH",3.064,,,
Systematic_Generation,,,Zr4N3T1,F,P63/mmc,,,,19.572,,,,,MXENE_005788,,,MXene_2D,,,Zr4N3T1,"Zr:4, N:3, Termination:F",3.074,,,
Systematic_Generation,,,Zr4N3T2,Cl,P63/mmc,,,,18.558,,,,,MXENE_005789,,,MXene_2D,,,Zr4N3T2,"Zr:4, N:3, Termination:Cl",3.005,,,
Systematic_Generation,,,Hf2C1T1,O,P63/mmc,,,,21.342,,,,,MXENE_005790,,,MXene_2D,,,Hf2C1T1,"Hf:2, C:1, Termination:O",3.159,,,
Systematic_Generation,,,Hf2C1T2,OH,P63/mmc,,,,22.418,,,,,MXENE_005791,,,MXene_2D,,,Hf2C1T2,"Hf:2, C:1, Termination:OH",3.107,,,
Systematic_Generation,,,Hf2C1T1,F,P63/mmc,,,,22.337,,,,,MXENE_005792,,,MXene_2D,,,Hf2C1T1,"Hf:2, C:1, Termination:F",3.047,,,
Systematic_Generation,,,Hf2C1T2,Cl,P63/mmc,,,,21.851,,,,,MXENE_005793,,,MXene_2D,,,Hf2C1T2,"Hf:2, C:1, Termination:Cl",3.18,,,
Systematic_Generation,,,Hf3C2T1,O,P63/mmc,,,,18.634,,,,,MXENE_005794,,,MXene_2D,,,Hf3C2T1,"Hf:3, C:2, Termination:O",3.139,,,