source,n_elements,doping_concentration,name,termination,space_group,doping_level,volume_fraction,weight_percent,lattice_c,temperature,reinforcement,matrix,layers,material_id,molecular_weight,deposition_method,type,lattice_b,pdi,formula,composition,lattice_a,thickness_nm,dopant,substrate
Systematic_Generation,,5000000000000000.0,InP:Se_5.0e+15,,Inherited,,,,,,,,,DOPED_003679,,,Doped_Semiconductor,,,InP_Se,InP + Se @ 5.0e+15 cm^-3,,,Se,
Systematic_Generation,,1e+16,InP:Se_1.0e+16,,Inherited,,,,,,,,,DOPED_003680,,,Doped_Semiconductor,,,InP_Se,InP + Se @ 1.0e+16 cm^-3,,,Se,
Systematic_Generation,,5e+16,InP:Se_5.0e+16,,Inherited,,,,,,,,,DOPED_003681,,,Doped_Semiconductor,,,InP_Se,InP + Se @ 5.0e+16 cm^-3,,,Se,
Systematic_Generation,,1e+17,InP:Se_1.0e+17,,Inherited,,,,,,,,,DOPED_003682,,,Doped_Semiconductor,,,InP_Se,InP + Se @ 1.0e+17 cm^-3,,,Se,
Systematic_Generation,,5e+17,InP:Se_5.0e+17,,Inherited,,,,,,,,,DOPED_003683,,,Doped_Semiconductor,,,InP_Se,InP + Se @ 5.0e+17 cm^-3,,,Se,
Systematic_Generation,,1e+18,InP:Se_1.0e+18,,Inherited,,,,,,,,,DOPED_003684,,,Doped_Semiconductor,,,InP_Se,InP + Se @ 1.0e+18 cm^-3,,,Se,
Systematic_Generation,,5e+18,InP:Se_5.0e+18,,Inherited,,,,,,,,,DOPED_003685,,,Doped_Semiconductor,,,InP_Se,InP + Se @ 5.0e+18 cm^-3,,,Se,
Systematic_Generation,,1e+19,InP:Se_1.0e+19,,Inherited,,,,,,,,,DOPED_003686,,,Doped_Semiconductor,,,InP_Se,InP + Se @ 1.0e+19 cm^-3,,,Se,
Systematic_Generation,,5e+19,InP:Se_5.0e+19,,Inherited,,,,,,,,,DOPED_003687,,,Doped_Semiconductor,,,InP_Se,InP + Se @ 5.0e+19 cm^-3,,,Se,
Systematic_Generation,,1e+20,InP:Se_1.0e+20,,Inherited,,,,,,,,,DOPED_003688,,,Doped_Semiconductor,,,InP_Se,InP + Se @ 1.0e+20 cm^-3,,,Se,
Systematic_Generation,,1e+21,InP:Se_1.0e+21,,Inherited,,,,,,,,,DOPED_003689,,,Doped_Semiconductor,,,InP_Se,InP + Se @ 1.0e+21 cm^-3,,,Se,
Systematic_Generation,,1000000000000000.0,InP:Te_1.0e+15,,Inherited,,,,,,,,,DOPED_003690,,,Doped_Semiconductor,,,InP_Te,InP + Te @ 1.0e+15 cm^-3,,,Te,
Systematic_Generation,,5000000000000000.0,InP:Te_5.0e+15,,Inherited,,,,,,,,,DOPED_003691,,,Doped_Semiconductor,,,InP_Te,InP + Te @ 5.0e+15 cm^-3,,,Te,
Systematic_Generation,,1e+16,InP:Te_1.0e+16,,Inherited,,,,,,,,,DOPED_003692,,,Doped_Semiconductor,,,InP_Te,InP + Te @ 1.0e+16 cm^-3,,,Te,
Systematic_Generation,,5e+16,InP:Te_5.0e+16,,Inherited,,,,,,,,,DOPED_003693,,,Doped_Semiconductor,,,InP_Te,InP + Te @ 5.0e+16 cm^-3,,,Te,
Systematic_Generation,,1e+17,InP:Te_1.0e+17,,Inherited,,,,,,,,,DOPED_003694,,,Doped_Semiconductor,,,InP_Te,InP + Te @ 1.0e+17 cm^-3,,,Te,
Systematic_Generation,,5e+17,InP:Te_5.0e+17,,Inherited,,,,,,,,,DOPED_003695,,,Doped_Semiconductor,,,InP_Te,InP + Te @ 5.0e+17 cm^-3,,,Te,
Systematic_Generation,,1e+18,InP:Te_1.0e+18,,Inherited,,,,,,,,,DOPED_003696,,,Doped_Semiconductor,,,InP_Te,InP + Te @ 1.0e+18 cm^-3,,,Te,
Systematic_Generation,,5e+18,InP:Te_5.0e+18,,Inherited,,,,,,,,,DOPED_003697,,,Doped_Semiconductor,,,InP_Te,InP + Te @ 5.0e+18 cm^-3,,,Te,
Systematic_Generation,,1e+19,InP:Te_1.0e+19,,Inherited,,,,,,,,,DOPED_003698,,,Doped_Semiconductor,,,InP_Te,InP + Te @ 1.0e+19 cm^-3,,,Te,
Systematic_Generation,,5e+19,InP:Te_5.0e+19,,Inherited,,,,,,,,,DOPED_003699,,,Doped_Semiconductor,,,InP_Te,InP + Te @ 5.0e+19 cm^-3,,,Te,
Systematic_Generation,,1e+20,InP:Te_1.0e+20,,Inherited,,,,,,,,,DOPED_003700,,,Doped_Semiconductor,,,InP_Te,InP + Te @ 1.0e+20 cm^-3,,,Te,
Systematic_Generation,,1e+21,InP:Te_1.0e+21,,Inherited,,,,,,,,,DOPED_003701,,,Doped_Semiconductor,,,InP_Te,InP + Te @ 1.0e+21 cm^-3,,,Te,
Systematic_Generation,,1000000000000000.0,GaP:B_1.0e+15,,Inherited,,,,,,,,,DOPED_003702,,,Doped_Semiconductor,,,GaP_B,GaP + B @ 1.0e+15 cm^-3,,,B,
Systematic_Generation,,5000000000000000.0,GaP:B_5.0e+15,,Inherited,,,,,,,,,DOPED_003703,,,Doped_Semiconductor,,,GaP_B,GaP + B @ 5.0e+15 cm^-3,,,B,
Systematic_Generation,,1e+16,GaP:B_1.0e+16,,Inherited,,,,,,,,,DOPED_003704,,,Doped_Semiconductor,,,GaP_B,GaP + B @ 1.0e+16 cm^-3,,,B,
Systematic_Generation,,5e+16,GaP:B_5.0e+16,,Inherited,,,,,,,,,DOPED_003705,,,Doped_Semiconductor,,,GaP_B,GaP + B @ 5.0e+16 cm^-3,,,B,
Systematic_Generation,,1e+17,GaP:B_1.0e+17,,Inherited,,,,,,,,,DOPED_003706,,,Doped_Semiconductor,,,GaP_B,GaP + B @ 1.0e+17 cm^-3,,,B,
Systematic_Generation,,5e+17,GaP:B_5.0e+17,,Inherited,,,,,,,,,DOPED_003707,,,Doped_Semiconductor,,,GaP_B,GaP + B @ 5.0e+17 cm^-3,,,B,
Systematic_Generation,,1e+18,GaP:B_1.0e+18,,Inherited,,,,,,,,,DOPED_003708,,,Doped_Semiconductor,,,GaP_B,GaP + B @ 1.0e+18 cm^-3,,,B,
Systematic_Generation,,5e+18,GaP:B_5.0e+18,,Inherited,,,,,,,,,DOPED_003709,,,Doped_Semiconductor,,,GaP_B,GaP + B @ 5.0e+18 cm^-3,,,B,
Systematic_Generation,,1e+19,GaP:B_1.0e+19,,Inherited,,,,,,,,,DOPED_003710,,,Doped_Semiconductor,,,GaP_B,GaP + B @ 1.0e+19 cm^-3,,,B,
Systematic_Generation,,5e+19,GaP:B_5.0e+19,,Inherited,,,,,,,,,DOPED_003711,,,Doped_Semiconductor,,,GaP_B,GaP + B @ 5.0e+19 cm^-3,,,B,
Systematic_Generation,,1e+20,GaP:B_1.0e+20,,Inherited,,,,,,,,,DOPED_003712,,,Doped_Semiconductor,,,GaP_B,GaP + B @ 1.0e+20 cm^-3,,,B,
Systematic_Generation,,1e+21,GaP:B_1.0e+21,,Inherited,,,,,,,,,DOPED_003713,,,Doped_Semiconductor,,,GaP_B,GaP + B @ 1.0e+21 cm^-3,,,B,
Systematic_Generation,,1000000000000000.0,GaP:P_1.0e+15,,Inherited,,,,,,,,,DOPED_003714,,,Doped_Semiconductor,,,GaP_P,GaP + P @ 1.0e+15 cm^-3,,,P,
Systematic_Generation,,5000000000000000.0,GaP:P_5.0e+15,,Inherited,,,,,,,,,DOPED_003715,,,Doped_Semiconductor,,,GaP_P,GaP + P @ 5.0e+15 cm^-3,,,P,
Systematic_Generation,,1e+16,GaP:P_1.0e+16,,Inherited,,,,,,,,,DOPED_003716,,,Doped_Semiconductor,,,GaP_P,GaP + P @ 1.0e+16 cm^-3,,,P,
Systematic_Generation,,5e+16,GaP:P_5.0e+16,,Inherited,,,,,,,,,DOPED_003717,,,Doped_Semiconductor,,,GaP_P,GaP + P @ 5.0e+16 cm^-3,,,P,
Systematic_Generation,,1e+17,GaP:P_1.0e+17,,Inherited,,,,,,,,,DOPED_003718,,,Doped_Semiconductor,,,GaP_P,GaP + P @ 1.0e+17 cm^-3,,,P,
Systematic_Generation,,5e+17,GaP:P_5.0e+17,,Inherited,,,,,,,,,DOPED_003719,,,Doped_Semiconductor,,,GaP_P,GaP + P @ 5.0e+17 cm^-3,,,P,
Systematic_Generation,,1e+18,GaP:P_1.0e+18,,Inherited,,,,,,,,,DOPED_003720,,,Doped_Semiconductor,,,GaP_P,GaP + P @ 1.0e+18 cm^-3,,,P,
Systematic_Generation,,5e+18,GaP:P_5.0e+18,,Inherited,,,,,,,,,DOPED_003721,,,Doped_Semiconductor,,,GaP_P,GaP + P @ 5.0e+18 cm^-3,,,P,
Systematic_Generation,,1e+19,GaP:P_1.0e+19,,Inherited,,,,,,,,,DOPED_003722,,,Doped_Semiconductor,,,GaP_P,GaP + P @ 1.0e+19 cm^-3,,,P,
Systematic_Generation,,5e+19,GaP:P_5.0e+19,,Inherited,,,,,,,,,DOPED_003723,,,Doped_Semiconductor,,,GaP_P,GaP + P @ 5.0e+19 cm^-3,,,P,
Systematic_Generation,,1e+20,GaP:P_1.0e+20,,Inherited,,,,,,,,,DOPED_003724,,,Doped_Semiconductor,,,GaP_P,GaP + P @ 1.0e+20 cm^-3,,,P,
Systematic_Generation,,1e+21,GaP:P_1.0e+21,,Inherited,,,,,,,,,DOPED_003725,,,Doped_Semiconductor,,,GaP_P,GaP + P @ 1.0e+21 cm^-3,,,P,
Systematic_Generation,,1000000000000000.0,GaP:As_1.0e+15,,Inherited,,,,,,,,,DOPED_003726,,,Doped_Semiconductor,,,GaP_As,GaP + As @ 1.0e+15 cm^-3,,,As,
Systematic_Generation,,5000000000000000.0,GaP:As_5.0e+15,,Inherited,,,,,,,,,DOPED_003727,,,Doped_Semiconductor,,,GaP_As,GaP + As @ 5.0e+15 cm^-3,,,As,
Systematic_Generation,,1e+16,GaP:As_1.0e+16,,Inherited,,,,,,,,,DOPED_003728,,,Doped_Semiconductor,,,GaP_As,GaP + As @ 1.0e+16 cm^-3,,,As,
Systematic_Generation,,5e+16,GaP:As_5.0e+16,,Inherited,,,,,,,,,DOPED_003729,,,Doped_Semiconductor,,,GaP_As,GaP + As @ 5.0e+16 cm^-3,,,As,
Systematic_Generation,,1e+17,GaP:As_1.0e+17,,Inherited,,,,,,,,,DOPED_003730,,,Doped_Semiconductor,,,GaP_As,GaP + As @ 1.0e+17 cm^-3,,,As,
Systematic_Generation,,5e+17,GaP:As_5.0e+17,,Inherited,,,,,,,,,DOPED_003731,,,Doped_Semiconductor,,,GaP_As,GaP + As @ 5.0e+17 cm^-3,,,As,
Systematic_Generation,,1e+18,GaP:As_1.0e+18,,Inherited,,,,,,,,,DOPED_003732,,,Doped_Semiconductor,,,GaP_As,GaP + As @ 1.0e+18 cm^-3,,,As,
Systematic_Generation,,5e+18,GaP:As_5.0e+18,,Inherited,,,,,,,,,DOPED_003733,,,Doped_Semiconductor,,,GaP_As,GaP + As @ 5.0e+18 cm^-3,,,As,
Systematic_Generation,,1e+19,GaP:As_1.0e+19,,Inherited,,,,,,,,,DOPED_003734,,,Doped_Semiconductor,,,GaP_As,GaP + As @ 1.0e+19 cm^-3,,,As,
Systematic_Generation,,5e+19,GaP:As_5.0e+19,,Inherited,,,,,,,,,DOPED_003735,,,Doped_Semiconductor,,,GaP_As,GaP + As @ 5.0e+19 cm^-3,,,As,
Systematic_Generation,,1e+20,GaP:As_1.0e+20,,Inherited,,,,,,,,,DOPED_003736,,,Doped_Semiconductor,,,GaP_As,GaP + As @ 1.0e+20 cm^-3,,,As,
Systematic_Generation,,1e+21,GaP:As_1.0e+21,,Inherited,,,,,,,,,DOPED_003737,,,Doped_Semiconductor,,,GaP_As,GaP + As @ 1.0e+21 cm^-3,,,As,
Systematic_Generation,,1000000000000000.0,GaP:Sb_1.0e+15,,Inherited,,,,,,,,,DOPED_003738,,,Doped_Semiconductor,,,GaP_Sb,GaP + Sb @ 1.0e+15 cm^-3,,,Sb,
Systematic_Generation,,5000000000000000.0,GaP:Sb_5.0e+15,,Inherited,,,,,,,,,DOPED_003739,,,Doped_Semiconductor,,,GaP_Sb,GaP + Sb @ 5.0e+15 cm^-3,,,Sb,
Systematic_Generation,,1e+16,GaP:Sb_1.0e+16,,Inherited,,,,,,,,,DOPED_003740,,,Doped_Semiconductor,,,GaP_Sb,GaP + Sb @ 1.0e+16 cm^-3,,,Sb,
Systematic_Generation,,5e+16,GaP:Sb_5.0e+16,,Inherited,,,,,,,,,DOPED_003741,,,Doped_Semiconductor,,,GaP_Sb,GaP + Sb @ 5.0e+16 cm^-3,,,Sb,
Systematic_Generation,,1e+17,GaP:Sb_1.0e+17,,Inherited,,,,,,,,,DOPED_003742,,,Doped_Semiconductor,,,GaP_Sb,GaP + Sb @ 1.0e+17 cm^-3,,,Sb,
Systematic_Generation,,5e+17,GaP:Sb_5.0e+17,,Inherited,,,,,,,,,DOPED_003743,,,Doped_Semiconductor,,,GaP_Sb,GaP + Sb @ 5.0e+17 cm^-3,,,Sb,
Systematic_Generation,,1e+18,GaP:Sb_1.0e+18,,Inherited,,,,,,,,,DOPED_003744,,,Doped_Semiconductor,,,GaP_Sb,GaP + Sb @ 1.0e+18 cm^-3,,,Sb,
Systematic_Generation,,5e+18,GaP:Sb_5.0e+18,,Inherited,,,,,,,,,DOPED_003745,,,Doped_Semiconductor,,,GaP_Sb,GaP + Sb @ 5.0e+18 cm^-3,,,Sb,
Systematic_Generation,,1e+19,GaP:Sb_1.0e+19,,Inherited,,,,,,,,,DOPED_003746,,,Doped_Semiconductor,,,GaP_Sb,GaP + Sb @ 1.0e+19 cm^-3,,,Sb,
Systematic_Generation,,5e+19,GaP:Sb_5.0e+19,,Inherited,,,,,,,,,DOPED_003747,,,Doped_Semiconductor,,,GaP_Sb,GaP + Sb @ 5.0e+19 cm^-3,,,Sb,
Systematic_Generation,,1e+20,GaP:Sb_1.0e+20,,Inherited,,,,,,,,,DOPED_003748,,,Doped_Semiconductor,,,GaP_Sb,GaP + Sb @ 1.0e+20 cm^-3,,,Sb,
Systematic_Generation,,1e+21,GaP:Sb_1.0e+21,,Inherited,,,,,,,,,DOPED_003749,,,Doped_Semiconductor,,,GaP_Sb,GaP + Sb @ 1.0e+21 cm^-3,,,Sb,
Systematic_Generation,,1000000000000000.0,GaP:N_1.0e+15,,Inherited,,,,,,,,,DOPED_003750,,,Doped_Semiconductor,,,GaP_N,GaP + N @ 1.0e+15 cm^-3,,,N,
Systematic_Generation,,5000000000000000.0,GaP:N_5.0e+15,,Inherited,,,,,,,,,DOPED_003751,,,Doped_Semiconductor,,,GaP_N,GaP + N @ 5.0e+15 cm^-3,,,N,
Systematic_Generation,,1e+16,GaP:N_1.0e+16,,Inherited,,,,,,,,,DOPED_003752,,,Doped_Semiconductor,,,GaP_N,GaP + N @ 1.0e+16 cm^-3,,,N,
Systematic_Generation,,5e+16,GaP:N_5.0e+16,,Inherited,,,,,,,,,DOPED_003753,,,Doped_Semiconductor,,,GaP_N,GaP + N @ 5.0e+16 cm^-3,,,N,
Systematic_Generation,,1e+17,GaP:N_1.0e+17,,Inherited,,,,,,,,,DOPED_003754,,,Doped_Semiconductor,,,GaP_N,GaP + N @ 1.0e+17 cm^-3,,,N,
Systematic_Generation,,5e+17,GaP:N_5.0e+17,,Inherited,,,,,,,,,DOPED_003755,,,Doped_Semiconductor,,,GaP_N,GaP + N @ 5.0e+17 cm^-3,,,N,
Systematic_Generation,,1e+18,GaP:N_1.0e+18,,Inherited,,,,,,,,,DOPED_003756,,,Doped_Semiconductor,,,GaP_N,GaP + N @ 1.0e+18 cm^-3,,,N,
Systematic_Generation,,5e+18,GaP:N_5.0e+18,,Inherited,,,,,,,,,DOPED_003757,,,Doped_Semiconductor,,,GaP_N,GaP + N @ 5.0e+18 cm^-3,,,N,
Systematic_Generation,,1e+19,GaP:N_1.0e+19,,Inherited,,,,,,,,,DOPED_003758,,,Doped_Semiconductor,,,GaP_N,GaP + N @ 1.0e+19 cm^-3,,,N,
Systematic_Generation,,5e+19,GaP:N_5.0e+19,,Inherited,,,,,,,,,DOPED_003759,,,Doped_Semiconductor,,,GaP_N,GaP + N @ 5.0e+19 cm^-3,,,N,
Systematic_Generation,,1e+20,GaP:N_1.0e+20,,Inherited,,,,,,,,,DOPED_003760,,,Doped_Semiconductor,,,GaP_N,GaP + N @ 1.0e+20 cm^-3,,,N,
Systematic_Generation,,1e+21,GaP:N_1.0e+21,,Inherited,,,,,,,,,DOPED_003761,,,Doped_Semiconductor,,,GaP_N,GaP + N @ 1.0e+21 cm^-3,,,N,
Systematic_Generation,,1000000000000000.0,GaP:Al_1.0e+15,,Inherited,,,,,,,,,DOPED_003762,,,Doped_Semiconductor,,,GaP_Al,GaP + Al @ 1.0e+15 cm^-3,,,Al,
Systematic_Generation,,5000000000000000.0,GaP:Al_5.0e+15,,Inherited,,,,,,,,,DOPED_003763,,,Doped_Semiconductor,,,GaP_Al,GaP + Al @ 5.0e+15 cm^-3,,,Al,
Systematic_Generation,,1e+16,GaP:Al_1.0e+16,,Inherited,,,,,,,,,DOPED_003764,,,Doped_Semiconductor,,,GaP_Al,GaP + Al @ 1.0e+16 cm^-3,,,Al,
Systematic_Generation,,5e+16,GaP:Al_5.0e+16,,Inherited,,,,,,,,,DOPED_003765,,,Doped_Semiconductor,,,GaP_Al,GaP + Al @ 5.0e+16 cm^-3,,,Al,
Systematic_Generation,,1e+17,GaP:Al_1.0e+17,,Inherited,,,,,,,,,DOPED_003766,,,Doped_Semiconductor,,,GaP_Al,GaP + Al @ 1.0e+17 cm^-3,,,Al,
Systematic_Generation,,5e+17,GaP:Al_5.0e+17,,Inherited,,,,,,,,,DOPED_003767,,,Doped_Semiconductor,,,GaP_Al,GaP + Al @ 5.0e+17 cm^-3,,,Al,
Systematic_Generation,,1e+18,GaP:Al_1.0e+18,,Inherited,,,,,,,,,DOPED_003768,,,Doped_Semiconductor,,,GaP_Al,GaP + Al @ 1.0e+18 cm^-3,,,Al,
Systematic_Generation,,5e+18,GaP:Al_5.0e+18,,Inherited,,,,,,,,,DOPED_003769,,,Doped_Semiconductor,,,GaP_Al,GaP + Al @ 5.0e+18 cm^-3,,,Al,
Systematic_Generation,,1e+19,GaP:Al_1.0e+19,,Inherited,,,,,,,,,DOPED_003770,,,Doped_Semiconductor,,,GaP_Al,GaP + Al @ 1.0e+19 cm^-3,,,Al,
Systematic_Generation,,5e+19,GaP:Al_5.0e+19,,Inherited,,,,,,,,,DOPED_003771,,,Doped_Semiconductor,,,GaP_Al,GaP + Al @ 5.0e+19 cm^-3,,,Al,
Systematic_Generation,,1e+20,GaP:Al_1.0e+20,,Inherited,,,,,,,,,DOPED_003772,,,Doped_Semiconductor,,,GaP_Al,GaP + Al @ 1.0e+20 cm^-3,,,Al,
Systematic_Generation,,1e+21,GaP:Al_1.0e+21,,Inherited,,,,,,,,,DOPED_003773,,,Doped_Semiconductor,,,GaP_Al,GaP + Al @ 1.0e+21 cm^-3,,,Al,
Systematic_Generation,,1000000000000000.0,GaP:Ga_1.0e+15,,Inherited,,,,,,,,,DOPED_003774,,,Doped_Semiconductor,,,GaP_Ga,GaP + Ga @ 1.0e+15 cm^-3,,,Ga,
Systematic_Generation,,5000000000000000.0,GaP:Ga_5.0e+15,,Inherited,,,,,,,,,DOPED_003775,,,Doped_Semiconductor,,,GaP_Ga,GaP + Ga @ 5.0e+15 cm^-3,,,Ga,
Systematic_Generation,,1e+16,GaP:Ga_1.0e+16,,Inherited,,,,,,,,,DOPED_003776,,,Doped_Semiconductor,,,GaP_Ga,GaP + Ga @ 1.0e+16 cm^-3,,,Ga,
Systematic_Generation,,5e+16,GaP:Ga_5.0e+16,,Inherited,,,,,,,,,DOPED_003777,,,Doped_Semiconductor,,,GaP_Ga,GaP + Ga @ 5.0e+16 cm^-3,,,Ga,
Systematic_Generation,,1e+17,GaP:Ga_1.0e+17,,Inherited,,,,,,,,,DOPED_003778,,,Doped_Semiconductor,,,GaP_Ga,GaP + Ga @ 1.0e+17 cm^-3,,,Ga,
Systematic_Generation,,5e+17,GaP:Ga_5.0e+17,,Inherited,,,,,,,,,DOPED_003779,,,Doped_Semiconductor,,,GaP_Ga,GaP + Ga @ 5.0e+17 cm^-3,,,Ga,
Systematic_Generation,,1e+18,GaP:Ga_1.0e+18,,Inherited,,,,,,,,,DOPED_003780,,,Doped_Semiconductor,,,GaP_Ga,GaP + Ga @ 1.0e+18 cm^-3,,,Ga,
Systematic_Generation,,5e+18,GaP:Ga_5.0e+18,,Inherited,,,,,,,,,DOPED_003781,,,Doped_Semiconductor,,,GaP_Ga,GaP + Ga @ 5.0e+18 cm^-3,,,Ga,
Systematic_Generation,,1e+19,GaP:Ga_1.0e+19,,Inherited,,,,,,,,,DOPED_003782,,,Doped_Semiconductor,,,GaP_Ga,GaP + Ga @ 1.0e+19 cm^-3,,,Ga,
Systematic_Generation,,5e+19,GaP:Ga_5.0e+19,,Inherited,,,,,,,,,DOPED_003783,,,Doped_Semiconductor,,,GaP_Ga,GaP + Ga @ 5.0e+19 cm^-3,,,Ga,
Systematic_Generation,,1e+20,GaP:Ga_1.0e+20,,Inherited,,,,,,,,,DOPED_003784,,,Doped_Semiconductor,,,GaP_Ga,GaP + Ga @ 1.0e+20 cm^-3,,,Ga,
Systematic_Generation,,1e+21,GaP:Ga_1.0e+21,,Inherited,,,,,,,,,DOPED_003785,,,Doped_Semiconductor,,,GaP_Ga,GaP + Ga @ 1.0e+21 cm^-3,,,Ga,
Systematic_Generation,,1000000000000000.0,GaP:In_1.0e+15,,Inherited,,,,,,,,,DOPED_003786,,,Doped_Semiconductor,,,GaP_In,GaP + In @ 1.0e+15 cm^-3,,,In,
Systematic_Generation,,5000000000000000.0,GaP:In_5.0e+15,,Inherited,,,,,,,,,DOPED_003787,,,Doped_Semiconductor,,,GaP_In,GaP + In @ 5.0e+15 cm^-3,,,In,
Systematic_Generation,,1e+16,GaP:In_1.0e+16,,Inherited,,,,,,,,,DOPED_003788,,,Doped_Semiconductor,,,GaP_In,GaP + In @ 1.0e+16 cm^-3,,,In,
Systematic_Generation,,5e+16,GaP:In_5.0e+16,,Inherited,,,,,,,,,DOPED_003789,,,Doped_Semiconductor,,,GaP_In,GaP + In @ 5.0e+16 cm^-3,,,In,
Systematic_Generation,,1e+17,GaP:In_1.0e+17,,Inherited,,,,,,,,,DOPED_003790,,,Doped_Semiconductor,,,GaP_In,GaP + In @ 1.0e+17 cm^-3,,,In,
Systematic_Generation,,5e+17,GaP:In_5.0e+17,,Inherited,,,,,,,,,DOPED_003791,,,Doped_Semiconductor,,,GaP_In,GaP + In @ 5.0e+17 cm^-3,,,In,
Systematic_Generation,,1e+18,GaP:In_1.0e+18,,Inherited,,,,,,,,,DOPED_003792,,,Doped_Semiconductor,,,GaP_In,GaP + In @ 1.0e+18 cm^-3,,,In,
Systematic_Generation,,5e+18,GaP:In_5.0e+18,,Inherited,,,,,,,,,DOPED_003793,,,Doped_Semiconductor,,,GaP_In,GaP + In @ 5.0e+18 cm^-3,,,In,
Systematic_Generation,,1e+19,GaP:In_1.0e+19,,Inherited,,,,,,,,,DOPED_003794,,,Doped_Semiconductor,,,GaP_In,GaP + In @ 1.0e+19 cm^-3,,,In,
Systematic_Generation,,5e+19,GaP:In_5.0e+19,,Inherited,,,,,,,,,DOPED_003795,,,Doped_Semiconductor,,,GaP_In,GaP + In @ 5.0e+19 cm^-3,,,In,
Systematic_Generation,,1e+20,GaP:In_1.0e+20,,Inherited,,,,,,,,,DOPED_003796,,,Doped_Semiconductor,,,GaP_In,GaP + In @ 1.0e+20 cm^-3,,,In,
Systematic_Generation,,1e+21,GaP:In_1.0e+21,,Inherited,,,,,,,,,DOPED_003797,,,Doped_Semiconductor,,,GaP_In,GaP + In @ 1.0e+21 cm^-3,,,In,
Systematic_Generation,,1000000000000000.0,GaP:Bi_1.0e+15,,Inherited,,,,,,,,,DOPED_003798,,,Doped_Semiconductor,,,GaP_Bi,GaP + Bi @ 1.0e+15 cm^-3,,,Bi,
Systematic_Generation,,5000000000000000.0,GaP:Bi_5.0e+15,,Inherited,,,,,,,,,DOPED_003799,,,Doped_Semiconductor,,,GaP_Bi,GaP + Bi @ 5.0e+15 cm^-3,,,Bi,
Systematic_Generation,,1e+16,GaP:Bi_1.0e+16,,Inherited,,,,,,,,,DOPED_003800,,,Doped_Semiconductor,,,GaP_Bi,GaP + Bi @ 1.0e+16 cm^-3,,,Bi,
Systematic_Generation,,5e+16,GaP:Bi_5.0e+16,,Inherited,,,,,,,,,DOPED_003801,,,Doped_Semiconductor,,,GaP_Bi,GaP + Bi @ 5.0e+16 cm^-3,,,Bi,
Systematic_Generation,,1e+17,GaP:Bi_1.0e+17,,Inherited,,,,,,,,,DOPED_003802,,,Doped_Semiconductor,,,GaP_Bi,GaP + Bi @ 1.0e+17 cm^-3,,,Bi,
Systematic_Generation,,5e+17,GaP:Bi_5.0e+17,,Inherited,,,,,,,,,DOPED_003803,,,Doped_Semiconductor,,,GaP_Bi,GaP + Bi @ 5.0e+17 cm^-3,,,Bi,
Systematic_Generation,,1e+18,GaP:Bi_1.0e+18,,Inherited,,,,,,,,,DOPED_003804,,,Doped_Semiconductor,,,GaP_Bi,GaP + Bi @ 1.0e+18 cm^-3,,,Bi,
Systematic_Generation,,5e+18,GaP:Bi_5.0e+18,,Inherited,,,,,,,,,DOPED_003805,,,Doped_Semiconductor,,,GaP_Bi,GaP + Bi @ 5.0e+18 cm^-3,,,Bi,
Systematic_Generation,,1e+19,GaP:Bi_1.0e+19,,Inherited,,,,,,,,,DOPED_003806,,,Doped_Semiconductor,,,GaP_Bi,GaP + Bi @ 1.0e+19 cm^-3,,,Bi,
Systematic_Generation,,5e+19,GaP:Bi_5.0e+19,,Inherited,,,,,,,,,DOPED_003807,,,Doped_Semiconductor,,,GaP_Bi,GaP + Bi @ 5.0e+19 cm^-3,,,Bi,
Systematic_Generation,,1e+20,GaP:Bi_1.0e+20,,Inherited,,,,,,,,,DOPED_003808,,,Doped_Semiconductor,,,GaP_Bi,GaP + Bi @ 1.0e+20 cm^-3,,,Bi,
Systematic_Generation,,1e+21,GaP:Bi_1.0e+21,,Inherited,,,,,,,,,DOPED_003809,,,Doped_Semiconductor,,,GaP_Bi,GaP + Bi @ 1.0e+21 cm^-3,,,Bi,
Systematic_Generation,,1000000000000000.0,GaP:Li_1.0e+15,,Inherited,,,,,,,,,DOPED_003810,,,Doped_Semiconductor,,,GaP_Li,GaP + Li @ 1.0e+15 cm^-3,,,Li,
Systematic_Generation,,5000000000000000.0,GaP:Li_5.0e+15,,Inherited,,,,,,,,,DOPED_003811,,,Doped_Semiconductor,,,GaP_Li,GaP + Li @ 5.0e+15 cm^-3,,,Li,
Systematic_Generation,,1e+16,GaP:Li_1.0e+16,,Inherited,,,,,,,,,DOPED_003812,,,Doped_Semiconductor,,,GaP_Li,GaP + Li @ 1.0e+16 cm^-3,,,Li,
Systematic_Generation,,5e+16,GaP:Li_5.0e+16,,Inherited,,,,,,,,,DOPED_003813,,,Doped_Semiconductor,,,GaP_Li,GaP + Li @ 5.0e+16 cm^-3,,,Li,
Systematic_Generation,,1e+17,GaP:Li_1.0e+17,,Inherited,,,,,,,,,DOPED_003814,,,Doped_Semiconductor,,,GaP_Li,GaP + Li @ 1.0e+17 cm^-3,,,Li,
Systematic_Generation,,5e+17,GaP:Li_5.0e+17,,Inherited,,,,,,,,,DOPED_003815,,,Doped_Semiconductor,,,GaP_Li,GaP + Li @ 5.0e+17 cm^-3,,,Li,
Systematic_Generation,,1e+18,GaP:Li_1.0e+18,,Inherited,,,,,,,,,DOPED_003816,,,Doped_Semiconductor,,,GaP_Li,GaP + Li @ 1.0e+18 cm^-3,,,Li,
Systematic_Generation,,5e+18,GaP:Li_5.0e+18,,Inherited,,,,,,,,,DOPED_003817,,,Doped_Semiconductor,,,GaP_Li,GaP + Li @ 5.0e+18 cm^-3,,,Li,
Systematic_Generation,,1e+19,GaP:Li_1.0e+19,,Inherited,,,,,,,,,DOPED_003818,,,Doped_Semiconductor,,,GaP_Li,GaP + Li @ 1.0e+19 cm^-3,,,Li,
Systematic_Generation,,5e+19,GaP:Li_5.0e+19,,Inherited,,,,,,,,,DOPED_003819,,,Doped_Semiconductor,,,GaP_Li,GaP + Li @ 5.0e+19 cm^-3,,,Li,