source,n_elements,doping_concentration,name,termination,space_group,doping_level,volume_fraction,weight_percent,lattice_c,temperature,reinforcement,matrix,layers,material_id,molecular_weight,deposition_method,type,lattice_b,pdi,formula,composition,lattice_a,thickness_nm,dopant,substrate
Systematic_Generation,,1e+18,GaN:B_1.0e+18,,Inherited,,,,,,,,,DOPED_003396,,,Doped_Semiconductor,,,GaN_B,GaN + B @ 1.0e+18 cm^-3,,,B,
Systematic_Generation,,5e+18,GaN:B_5.0e+18,,Inherited,,,,,,,,,DOPED_003397,,,Doped_Semiconductor,,,GaN_B,GaN + B @ 5.0e+18 cm^-3,,,B,
Systematic_Generation,,1e+19,GaN:B_1.0e+19,,Inherited,,,,,,,,,DOPED_003398,,,Doped_Semiconductor,,,GaN_B,GaN + B @ 1.0e+19 cm^-3,,,B,
Systematic_Generation,,5e+19,GaN:B_5.0e+19,,Inherited,,,,,,,,,DOPED_003399,,,Doped_Semiconductor,,,GaN_B,GaN + B @ 5.0e+19 cm^-3,,,B,
Systematic_Generation,,1e+20,GaN:B_1.0e+20,,Inherited,,,,,,,,,DOPED_003400,,,Doped_Semiconductor,,,GaN_B,GaN + B @ 1.0e+20 cm^-3,,,B,
Systematic_Generation,,1e+21,GaN:B_1.0e+21,,Inherited,,,,,,,,,DOPED_003401,,,Doped_Semiconductor,,,GaN_B,GaN + B @ 1.0e+21 cm^-3,,,B,
Systematic_Generation,,1000000000000000.0,GaN:P_1.0e+15,,Inherited,,,,,,,,,DOPED_003402,,,Doped_Semiconductor,,,GaN_P,GaN + P @ 1.0e+15 cm^-3,,,P,
Systematic_Generation,,5000000000000000.0,GaN:P_5.0e+15,,Inherited,,,,,,,,,DOPED_003403,,,Doped_Semiconductor,,,GaN_P,GaN + P @ 5.0e+15 cm^-3,,,P,
Systematic_Generation,,1e+16,GaN:P_1.0e+16,,Inherited,,,,,,,,,DOPED_003404,,,Doped_Semiconductor,,,GaN_P,GaN + P @ 1.0e+16 cm^-3,,,P,
Systematic_Generation,,5e+16,GaN:P_5.0e+16,,Inherited,,,,,,,,,DOPED_003405,,,Doped_Semiconductor,,,GaN_P,GaN + P @ 5.0e+16 cm^-3,,,P,
Systematic_Generation,,1e+17,GaN:P_1.0e+17,,Inherited,,,,,,,,,DOPED_003406,,,Doped_Semiconductor,,,GaN_P,GaN + P @ 1.0e+17 cm^-3,,,P,
Systematic_Generation,,5e+17,GaN:P_5.0e+17,,Inherited,,,,,,,,,DOPED_003407,,,Doped_Semiconductor,,,GaN_P,GaN + P @ 5.0e+17 cm^-3,,,P,
Systematic_Generation,,1e+18,GaN:P_1.0e+18,,Inherited,,,,,,,,,DOPED_003408,,,Doped_Semiconductor,,,GaN_P,GaN + P @ 1.0e+18 cm^-3,,,P,
Systematic_Generation,,5e+18,GaN:P_5.0e+18,,Inherited,,,,,,,,,DOPED_003409,,,Doped_Semiconductor,,,GaN_P,GaN + P @ 5.0e+18 cm^-3,,,P,
Systematic_Generation,,1e+19,GaN:P_1.0e+19,,Inherited,,,,,,,,,DOPED_003410,,,Doped_Semiconductor,,,GaN_P,GaN + P @ 1.0e+19 cm^-3,,,P,
Systematic_Generation,,5e+19,GaN:P_5.0e+19,,Inherited,,,,,,,,,DOPED_003411,,,Doped_Semiconductor,,,GaN_P,GaN + P @ 5.0e+19 cm^-3,,,P,
Systematic_Generation,,1e+20,GaN:P_1.0e+20,,Inherited,,,,,,,,,DOPED_003412,,,Doped_Semiconductor,,,GaN_P,GaN + P @ 1.0e+20 cm^-3,,,P,
Systematic_Generation,,1e+21,GaN:P_1.0e+21,,Inherited,,,,,,,,,DOPED_003413,,,Doped_Semiconductor,,,GaN_P,GaN + P @ 1.0e+21 cm^-3,,,P,
Systematic_Generation,,1000000000000000.0,GaN:As_1.0e+15,,Inherited,,,,,,,,,DOPED_003414,,,Doped_Semiconductor,,,GaN_As,GaN + As @ 1.0e+15 cm^-3,,,As,
Systematic_Generation,,5000000000000000.0,GaN:As_5.0e+15,,Inherited,,,,,,,,,DOPED_003415,,,Doped_Semiconductor,,,GaN_As,GaN + As @ 5.0e+15 cm^-3,,,As,
Systematic_Generation,,1e+16,GaN:As_1.0e+16,,Inherited,,,,,,,,,DOPED_003416,,,Doped_Semiconductor,,,GaN_As,GaN + As @ 1.0e+16 cm^-3,,,As,
Systematic_Generation,,5e+16,GaN:As_5.0e+16,,Inherited,,,,,,,,,DOPED_003417,,,Doped_Semiconductor,,,GaN_As,GaN + As @ 5.0e+16 cm^-3,,,As,
Systematic_Generation,,1e+17,GaN:As_1.0e+17,,Inherited,,,,,,,,,DOPED_003418,,,Doped_Semiconductor,,,GaN_As,GaN + As @ 1.0e+17 cm^-3,,,As,
Systematic_Generation,,5e+17,GaN:As_5.0e+17,,Inherited,,,,,,,,,DOPED_003419,,,Doped_Semiconductor,,,GaN_As,GaN + As @ 5.0e+17 cm^-3,,,As,
Systematic_Generation,,1e+18,GaN:As_1.0e+18,,Inherited,,,,,,,,,DOPED_003420,,,Doped_Semiconductor,,,GaN_As,GaN + As @ 1.0e+18 cm^-3,,,As,
Systematic_Generation,,5e+18,GaN:As_5.0e+18,,Inherited,,,,,,,,,DOPED_003421,,,Doped_Semiconductor,,,GaN_As,GaN + As @ 5.0e+18 cm^-3,,,As,
Systematic_Generation,,1e+19,GaN:As_1.0e+19,,Inherited,,,,,,,,,DOPED_003422,,,Doped_Semiconductor,,,GaN_As,GaN + As @ 1.0e+19 cm^-3,,,As,
Systematic_Generation,,5e+19,GaN:As_5.0e+19,,Inherited,,,,,,,,,DOPED_003423,,,Doped_Semiconductor,,,GaN_As,GaN + As @ 5.0e+19 cm^-3,,,As,
Systematic_Generation,,1e+20,GaN:As_1.0e+20,,Inherited,,,,,,,,,DOPED_003424,,,Doped_Semiconductor,,,GaN_As,GaN + As @ 1.0e+20 cm^-3,,,As,
Systematic_Generation,,1e+21,GaN:As_1.0e+21,,Inherited,,,,,,,,,DOPED_003425,,,Doped_Semiconductor,,,GaN_As,GaN + As @ 1.0e+21 cm^-3,,,As,
Systematic_Generation,,1000000000000000.0,GaN:Sb_1.0e+15,,Inherited,,,,,,,,,DOPED_003426,,,Doped_Semiconductor,,,GaN_Sb,GaN + Sb @ 1.0e+15 cm^-3,,,Sb,
Systematic_Generation,,5000000000000000.0,GaN:Sb_5.0e+15,,Inherited,,,,,,,,,DOPED_003427,,,Doped_Semiconductor,,,GaN_Sb,GaN + Sb @ 5.0e+15 cm^-3,,,Sb,
Systematic_Generation,,1e+16,GaN:Sb_1.0e+16,,Inherited,,,,,,,,,DOPED_003428,,,Doped_Semiconductor,,,GaN_Sb,GaN + Sb @ 1.0e+16 cm^-3,,,Sb,
Systematic_Generation,,5e+16,GaN:Sb_5.0e+16,,Inherited,,,,,,,,,DOPED_003429,,,Doped_Semiconductor,,,GaN_Sb,GaN + Sb @ 5.0e+16 cm^-3,,,Sb,
Systematic_Generation,,1e+17,GaN:Sb_1.0e+17,,Inherited,,,,,,,,,DOPED_003430,,,Doped_Semiconductor,,,GaN_Sb,GaN + Sb @ 1.0e+17 cm^-3,,,Sb,
Systematic_Generation,,5e+17,GaN:Sb_5.0e+17,,Inherited,,,,,,,,,DOPED_003431,,,Doped_Semiconductor,,,GaN_Sb,GaN + Sb @ 5.0e+17 cm^-3,,,Sb,
Systematic_Generation,,1e+18,GaN:Sb_1.0e+18,,Inherited,,,,,,,,,DOPED_003432,,,Doped_Semiconductor,,,GaN_Sb,GaN + Sb @ 1.0e+18 cm^-3,,,Sb,
Systematic_Generation,,5e+18,GaN:Sb_5.0e+18,,Inherited,,,,,,,,,DOPED_003433,,,Doped_Semiconductor,,,GaN_Sb,GaN + Sb @ 5.0e+18 cm^-3,,,Sb,
Systematic_Generation,,1e+19,GaN:Sb_1.0e+19,,Inherited,,,,,,,,,DOPED_003434,,,Doped_Semiconductor,,,GaN_Sb,GaN + Sb @ 1.0e+19 cm^-3,,,Sb,
Systematic_Generation,,5e+19,GaN:Sb_5.0e+19,,Inherited,,,,,,,,,DOPED_003435,,,Doped_Semiconductor,,,GaN_Sb,GaN + Sb @ 5.0e+19 cm^-3,,,Sb,
Systematic_Generation,,1e+20,GaN:Sb_1.0e+20,,Inherited,,,,,,,,,DOPED_003436,,,Doped_Semiconductor,,,GaN_Sb,GaN + Sb @ 1.0e+20 cm^-3,,,Sb,
Systematic_Generation,,1e+21,GaN:Sb_1.0e+21,,Inherited,,,,,,,,,DOPED_003437,,,Doped_Semiconductor,,,GaN_Sb,GaN + Sb @ 1.0e+21 cm^-3,,,Sb,
Systematic_Generation,,1000000000000000.0,GaN:N_1.0e+15,,Inherited,,,,,,,,,DOPED_003438,,,Doped_Semiconductor,,,GaN_N,GaN + N @ 1.0e+15 cm^-3,,,N,
Systematic_Generation,,5000000000000000.0,GaN:N_5.0e+15,,Inherited,,,,,,,,,DOPED_003439,,,Doped_Semiconductor,,,GaN_N,GaN + N @ 5.0e+15 cm^-3,,,N,
Systematic_Generation,,1e+16,GaN:N_1.0e+16,,Inherited,,,,,,,,,DOPED_003440,,,Doped_Semiconductor,,,GaN_N,GaN + N @ 1.0e+16 cm^-3,,,N,
Systematic_Generation,,5e+16,GaN:N_5.0e+16,,Inherited,,,,,,,,,DOPED_003441,,,Doped_Semiconductor,,,GaN_N,GaN + N @ 5.0e+16 cm^-3,,,N,
Systematic_Generation,,1e+17,GaN:N_1.0e+17,,Inherited,,,,,,,,,DOPED_003442,,,Doped_Semiconductor,,,GaN_N,GaN + N @ 1.0e+17 cm^-3,,,N,
Systematic_Generation,,5e+17,GaN:N_5.0e+17,,Inherited,,,,,,,,,DOPED_003443,,,Doped_Semiconductor,,,GaN_N,GaN + N @ 5.0e+17 cm^-3,,,N,
Systematic_Generation,,1e+18,GaN:N_1.0e+18,,Inherited,,,,,,,,,DOPED_003444,,,Doped_Semiconductor,,,GaN_N,GaN + N @ 1.0e+18 cm^-3,,,N,
Systematic_Generation,,5e+18,GaN:N_5.0e+18,,Inherited,,,,,,,,,DOPED_003445,,,Doped_Semiconductor,,,GaN_N,GaN + N @ 5.0e+18 cm^-3,,,N,
Systematic_Generation,,1e+19,GaN:N_1.0e+19,,Inherited,,,,,,,,,DOPED_003446,,,Doped_Semiconductor,,,GaN_N,GaN + N @ 1.0e+19 cm^-3,,,N,
Systematic_Generation,,5e+19,GaN:N_5.0e+19,,Inherited,,,,,,,,,DOPED_003447,,,Doped_Semiconductor,,,GaN_N,GaN + N @ 5.0e+19 cm^-3,,,N,
Systematic_Generation,,1e+20,GaN:N_1.0e+20,,Inherited,,,,,,,,,DOPED_003448,,,Doped_Semiconductor,,,GaN_N,GaN + N @ 1.0e+20 cm^-3,,,N,
Systematic_Generation,,1e+21,GaN:N_1.0e+21,,Inherited,,,,,,,,,DOPED_003449,,,Doped_Semiconductor,,,GaN_N,GaN + N @ 1.0e+21 cm^-3,,,N,
Systematic_Generation,,1000000000000000.0,GaN:Al_1.0e+15,,Inherited,,,,,,,,,DOPED_003450,,,Doped_Semiconductor,,,GaN_Al,GaN + Al @ 1.0e+15 cm^-3,,,Al,
Systematic_Generation,,5000000000000000.0,GaN:Al_5.0e+15,,Inherited,,,,,,,,,DOPED_003451,,,Doped_Semiconductor,,,GaN_Al,GaN + Al @ 5.0e+15 cm^-3,,,Al,
Systematic_Generation,,1e+16,GaN:Al_1.0e+16,,Inherited,,,,,,,,,DOPED_003452,,,Doped_Semiconductor,,,GaN_Al,GaN + Al @ 1.0e+16 cm^-3,,,Al,
Systematic_Generation,,5e+16,GaN:Al_5.0e+16,,Inherited,,,,,,,,,DOPED_003453,,,Doped_Semiconductor,,,GaN_Al,GaN + Al @ 5.0e+16 cm^-3,,,Al,
Systematic_Generation,,1e+17,GaN:Al_1.0e+17,,Inherited,,,,,,,,,DOPED_003454,,,Doped_Semiconductor,,,GaN_Al,GaN + Al @ 1.0e+17 cm^-3,,,Al,
Systematic_Generation,,5e+17,GaN:Al_5.0e+17,,Inherited,,,,,,,,,DOPED_003455,,,Doped_Semiconductor,,,GaN_Al,GaN + Al @ 5.0e+17 cm^-3,,,Al,
Systematic_Generation,,1e+18,GaN:Al_1.0e+18,,Inherited,,,,,,,,,DOPED_003456,,,Doped_Semiconductor,,,GaN_Al,GaN + Al @ 1.0e+18 cm^-3,,,Al,
Systematic_Generation,,5e+18,GaN:Al_5.0e+18,,Inherited,,,,,,,,,DOPED_003457,,,Doped_Semiconductor,,,GaN_Al,GaN + Al @ 5.0e+18 cm^-3,,,Al,
Systematic_Generation,,1e+19,GaN:Al_1.0e+19,,Inherited,,,,,,,,,DOPED_003458,,,Doped_Semiconductor,,,GaN_Al,GaN + Al @ 1.0e+19 cm^-3,,,Al,
Systematic_Generation,,5e+19,GaN:Al_5.0e+19,,Inherited,,,,,,,,,DOPED_003459,,,Doped_Semiconductor,,,GaN_Al,GaN + Al @ 5.0e+19 cm^-3,,,Al,
Systematic_Generation,,1e+20,GaN:Al_1.0e+20,,Inherited,,,,,,,,,DOPED_003460,,,Doped_Semiconductor,,,GaN_Al,GaN + Al @ 1.0e+20 cm^-3,,,Al,
Systematic_Generation,,1e+21,GaN:Al_1.0e+21,,Inherited,,,,,,,,,DOPED_003461,,,Doped_Semiconductor,,,GaN_Al,GaN + Al @ 1.0e+21 cm^-3,,,Al,
Systematic_Generation,,1000000000000000.0,GaN:Ga_1.0e+15,,Inherited,,,,,,,,,DOPED_003462,,,Doped_Semiconductor,,,GaN_Ga,GaN + Ga @ 1.0e+15 cm^-3,,,Ga,
Systematic_Generation,,5000000000000000.0,GaN:Ga_5.0e+15,,Inherited,,,,,,,,,DOPED_003463,,,Doped_Semiconductor,,,GaN_Ga,GaN + Ga @ 5.0e+15 cm^-3,,,Ga,
Systematic_Generation,,1e+16,GaN:Ga_1.0e+16,,Inherited,,,,,,,,,DOPED_003464,,,Doped_Semiconductor,,,GaN_Ga,GaN + Ga @ 1.0e+16 cm^-3,,,Ga,
Systematic_Generation,,5e+16,GaN:Ga_5.0e+16,,Inherited,,,,,,,,,DOPED_003465,,,Doped_Semiconductor,,,GaN_Ga,GaN + Ga @ 5.0e+16 cm^-3,,,Ga,
Systematic_Generation,,1e+17,GaN:Ga_1.0e+17,,Inherited,,,,,,,,,DOPED_003466,,,Doped_Semiconductor,,,GaN_Ga,GaN + Ga @ 1.0e+17 cm^-3,,,Ga,
Systematic_Generation,,5e+17,GaN:Ga_5.0e+17,,Inherited,,,,,,,,,DOPED_003467,,,Doped_Semiconductor,,,GaN_Ga,GaN + Ga @ 5.0e+17 cm^-3,,,Ga,
Systematic_Generation,,1e+18,GaN:Ga_1.0e+18,,Inherited,,,,,,,,,DOPED_003468,,,Doped_Semiconductor,,,GaN_Ga,GaN + Ga @ 1.0e+18 cm^-3,,,Ga,
Systematic_Generation,,5e+18,GaN:Ga_5.0e+18,,Inherited,,,,,,,,,DOPED_003469,,,Doped_Semiconductor,,,GaN_Ga,GaN + Ga @ 5.0e+18 cm^-3,,,Ga,
Systematic_Generation,,1e+19,GaN:Ga_1.0e+19,,Inherited,,,,,,,,,DOPED_003470,,,Doped_Semiconductor,,,GaN_Ga,GaN + Ga @ 1.0e+19 cm^-3,,,Ga,
Systematic_Generation,,5e+19,GaN:Ga_5.0e+19,,Inherited,,,,,,,,,DOPED_003471,,,Doped_Semiconductor,,,GaN_Ga,GaN + Ga @ 5.0e+19 cm^-3,,,Ga,
Systematic_Generation,,1e+20,GaN:Ga_1.0e+20,,Inherited,,,,,,,,,DOPED_003472,,,Doped_Semiconductor,,,GaN_Ga,GaN + Ga @ 1.0e+20 cm^-3,,,Ga,
Systematic_Generation,,1e+21,GaN:Ga_1.0e+21,,Inherited,,,,,,,,,DOPED_003473,,,Doped_Semiconductor,,,GaN_Ga,GaN + Ga @ 1.0e+21 cm^-3,,,Ga,
Systematic_Generation,,1000000000000000.0,GaN:In_1.0e+15,,Inherited,,,,,,,,,DOPED_003474,,,Doped_Semiconductor,,,GaN_In,GaN + In @ 1.0e+15 cm^-3,,,In,
Systematic_Generation,,5000000000000000.0,GaN:In_5.0e+15,,Inherited,,,,,,,,,DOPED_003475,,,Doped_Semiconductor,,,GaN_In,GaN + In @ 5.0e+15 cm^-3,,,In,
Systematic_Generation,,1e+16,GaN:In_1.0e+16,,Inherited,,,,,,,,,DOPED_003476,,,Doped_Semiconductor,,,GaN_In,GaN + In @ 1.0e+16 cm^-3,,,In,
Systematic_Generation,,5e+16,GaN:In_5.0e+16,,Inherited,,,,,,,,,DOPED_003477,,,Doped_Semiconductor,,,GaN_In,GaN + In @ 5.0e+16 cm^-3,,,In,
Systematic_Generation,,1e+17,GaN:In_1.0e+17,,Inherited,,,,,,,,,DOPED_003478,,,Doped_Semiconductor,,,GaN_In,GaN + In @ 1.0e+17 cm^-3,,,In,
Systematic_Generation,,5e+17,GaN:In_5.0e+17,,Inherited,,,,,,,,,DOPED_003479,,,Doped_Semiconductor,,,GaN_In,GaN + In @ 5.0e+17 cm^-3,,,In,
Systematic_Generation,,1e+18,GaN:In_1.0e+18,,Inherited,,,,,,,,,DOPED_003480,,,Doped_Semiconductor,,,GaN_In,GaN + In @ 1.0e+18 cm^-3,,,In,
Systematic_Generation,,5e+18,GaN:In_5.0e+18,,Inherited,,,,,,,,,DOPED_003481,,,Doped_Semiconductor,,,GaN_In,GaN + In @ 5.0e+18 cm^-3,,,In,
Systematic_Generation,,1e+19,GaN:In_1.0e+19,,Inherited,,,,,,,,,DOPED_003482,,,Doped_Semiconductor,,,GaN_In,GaN + In @ 1.0e+19 cm^-3,,,In,
Systematic_Generation,,5e+19,GaN:In_5.0e+19,,Inherited,,,,,,,,,DOPED_003483,,,Doped_Semiconductor,,,GaN_In,GaN + In @ 5.0e+19 cm^-3,,,In,
Systematic_Generation,,1e+20,GaN:In_1.0e+20,,Inherited,,,,,,,,,DOPED_003484,,,Doped_Semiconductor,,,GaN_In,GaN + In @ 1.0e+20 cm^-3,,,In,
Systematic_Generation,,1e+21,GaN:In_1.0e+21,,Inherited,,,,,,,,,DOPED_003485,,,Doped_Semiconductor,,,GaN_In,GaN + In @ 1.0e+21 cm^-3,,,In,
Systematic_Generation,,1000000000000000.0,GaN:Bi_1.0e+15,,Inherited,,,,,,,,,DOPED_003486,,,Doped_Semiconductor,,,GaN_Bi,GaN + Bi @ 1.0e+15 cm^-3,,,Bi,
Systematic_Generation,,5000000000000000.0,GaN:Bi_5.0e+15,,Inherited,,,,,,,,,DOPED_003487,,,Doped_Semiconductor,,,GaN_Bi,GaN + Bi @ 5.0e+15 cm^-3,,,Bi,
Systematic_Generation,,1e+16,GaN:Bi_1.0e+16,,Inherited,,,,,,,,,DOPED_003488,,,Doped_Semiconductor,,,GaN_Bi,GaN + Bi @ 1.0e+16 cm^-3,,,Bi,
Systematic_Generation,,5e+16,GaN:Bi_5.0e+16,,Inherited,,,,,,,,,DOPED_003489,,,Doped_Semiconductor,,,GaN_Bi,GaN + Bi @ 5.0e+16 cm^-3,,,Bi,
Systematic_Generation,,1e+17,GaN:Bi_1.0e+17,,Inherited,,,,,,,,,DOPED_003490,,,Doped_Semiconductor,,,GaN_Bi,GaN + Bi @ 1.0e+17 cm^-3,,,Bi,
Systematic_Generation,,5e+17,GaN:Bi_5.0e+17,,Inherited,,,,,,,,,DOPED_003491,,,Doped_Semiconductor,,,GaN_Bi,GaN + Bi @ 5.0e+17 cm^-3,,,Bi,
Systematic_Generation,,1e+18,GaN:Bi_1.0e+18,,Inherited,,,,,,,,,DOPED_003492,,,Doped_Semiconductor,,,GaN_Bi,GaN + Bi @ 1.0e+18 cm^-3,,,Bi,
Systematic_Generation,,5e+18,GaN:Bi_5.0e+18,,Inherited,,,,,,,,,DOPED_003493,,,Doped_Semiconductor,,,GaN_Bi,GaN + Bi @ 5.0e+18 cm^-3,,,Bi,
Systematic_Generation,,1e+19,GaN:Bi_1.0e+19,,Inherited,,,,,,,,,DOPED_003494,,,Doped_Semiconductor,,,GaN_Bi,GaN + Bi @ 1.0e+19 cm^-3,,,Bi,
Systematic_Generation,,5e+19,GaN:Bi_5.0e+19,,Inherited,,,,,,,,,DOPED_003495,,,Doped_Semiconductor,,,GaN_Bi,GaN + Bi @ 5.0e+19 cm^-3,,,Bi,
Systematic_Generation,,1e+20,GaN:Bi_1.0e+20,,Inherited,,,,,,,,,DOPED_003496,,,Doped_Semiconductor,,,GaN_Bi,GaN + Bi @ 1.0e+20 cm^-3,,,Bi,
Systematic_Generation,,1e+21,GaN:Bi_1.0e+21,,Inherited,,,,,,,,,DOPED_003497,,,Doped_Semiconductor,,,GaN_Bi,GaN + Bi @ 1.0e+21 cm^-3,,,Bi,
Systematic_Generation,,1000000000000000.0,GaN:Li_1.0e+15,,Inherited,,,,,,,,,DOPED_003498,,,Doped_Semiconductor,,,GaN_Li,GaN + Li @ 1.0e+15 cm^-3,,,Li,
Systematic_Generation,,5000000000000000.0,GaN:Li_5.0e+15,,Inherited,,,,,,,,,DOPED_003499,,,Doped_Semiconductor,,,GaN_Li,GaN + Li @ 5.0e+15 cm^-3,,,Li,
Systematic_Generation,,1e+16,GaN:Li_1.0e+16,,Inherited,,,,,,,,,DOPED_003500,,,Doped_Semiconductor,,,GaN_Li,GaN + Li @ 1.0e+16 cm^-3,,,Li,
Systematic_Generation,,5e+16,GaN:Li_5.0e+16,,Inherited,,,,,,,,,DOPED_003501,,,Doped_Semiconductor,,,GaN_Li,GaN + Li @ 5.0e+16 cm^-3,,,Li,
Systematic_Generation,,1e+17,GaN:Li_1.0e+17,,Inherited,,,,,,,,,DOPED_003502,,,Doped_Semiconductor,,,GaN_Li,GaN + Li @ 1.0e+17 cm^-3,,,Li,
Systematic_Generation,,5e+17,GaN:Li_5.0e+17,,Inherited,,,,,,,,,DOPED_003503,,,Doped_Semiconductor,,,GaN_Li,GaN + Li @ 5.0e+17 cm^-3,,,Li,
Systematic_Generation,,1e+18,GaN:Li_1.0e+18,,Inherited,,,,,,,,,DOPED_003504,,,Doped_Semiconductor,,,GaN_Li,GaN + Li @ 1.0e+18 cm^-3,,,Li,
Systematic_Generation,,5e+18,GaN:Li_5.0e+18,,Inherited,,,,,,,,,DOPED_003505,,,Doped_Semiconductor,,,GaN_Li,GaN + Li @ 5.0e+18 cm^-3,,,Li,
Systematic_Generation,,1e+19,GaN:Li_1.0e+19,,Inherited,,,,,,,,,DOPED_003506,,,Doped_Semiconductor,,,GaN_Li,GaN + Li @ 1.0e+19 cm^-3,,,Li,
Systematic_Generation,,5e+19,GaN:Li_5.0e+19,,Inherited,,,,,,,,,DOPED_003507,,,Doped_Semiconductor,,,GaN_Li,GaN + Li @ 5.0e+19 cm^-3,,,Li,
Systematic_Generation,,1e+20,GaN:Li_1.0e+20,,Inherited,,,,,,,,,DOPED_003508,,,Doped_Semiconductor,,,GaN_Li,GaN + Li @ 1.0e+20 cm^-3,,,Li,
Systematic_Generation,,1e+21,GaN:Li_1.0e+21,,Inherited,,,,,,,,,DOPED_003509,,,Doped_Semiconductor,,,GaN_Li,GaN + Li @ 1.0e+21 cm^-3,,,Li,
Systematic_Generation,,1000000000000000.0,GaN:S_1.0e+15,,Inherited,,,,,,,,,DOPED_003510,,,Doped_Semiconductor,,,GaN_S,GaN + S @ 1.0e+15 cm^-3,,,S,
Systematic_Generation,,5000000000000000.0,GaN:S_5.0e+15,,Inherited,,,,,,,,,DOPED_003511,,,Doped_Semiconductor,,,GaN_S,GaN + S @ 5.0e+15 cm^-3,,,S,
Systematic_Generation,,1e+16,GaN:S_1.0e+16,,Inherited,,,,,,,,,DOPED_003512,,,Doped_Semiconductor,,,GaN_S,GaN + S @ 1.0e+16 cm^-3,,,S,
Systematic_Generation,,5e+16,GaN:S_5.0e+16,,Inherited,,,,,,,,,DOPED_003513,,,Doped_Semiconductor,,,GaN_S,GaN + S @ 5.0e+16 cm^-3,,,S,
Systematic_Generation,,1e+17,GaN:S_1.0e+17,,Inherited,,,,,,,,,DOPED_003514,,,Doped_Semiconductor,,,GaN_S,GaN + S @ 1.0e+17 cm^-3,,,S,
Systematic_Generation,,5e+17,GaN:S_5.0e+17,,Inherited,,,,,,,,,DOPED_003515,,,Doped_Semiconductor,,,GaN_S,GaN + S @ 5.0e+17 cm^-3,,,S,
Systematic_Generation,,1e+18,GaN:S_1.0e+18,,Inherited,,,,,,,,,DOPED_003516,,,Doped_Semiconductor,,,GaN_S,GaN + S @ 1.0e+18 cm^-3,,,S,
Systematic_Generation,,5e+18,GaN:S_5.0e+18,,Inherited,,,,,,,,,DOPED_003517,,,Doped_Semiconductor,,,GaN_S,GaN + S @ 5.0e+18 cm^-3,,,S,
Systematic_Generation,,1e+19,GaN:S_1.0e+19,,Inherited,,,,,,,,,DOPED_003518,,,Doped_Semiconductor,,,GaN_S,GaN + S @ 1.0e+19 cm^-3,,,S,
Systematic_Generation,,5e+19,GaN:S_5.0e+19,,Inherited,,,,,,,,,DOPED_003519,,,Doped_Semiconductor,,,GaN_S,GaN + S @ 5.0e+19 cm^-3,,,S,
Systematic_Generation,,1e+20,GaN:S_1.0e+20,,Inherited,,,,,,,,,DOPED_003520,,,Doped_Semiconductor,,,GaN_S,GaN + S @ 1.0e+20 cm^-3,,,S,
Systematic_Generation,,1e+21,GaN:S_1.0e+21,,Inherited,,,,,,,,,DOPED_003521,,,Doped_Semiconductor,,,GaN_S,GaN + S @ 1.0e+21 cm^-3,,,S,
Systematic_Generation,,1000000000000000.0,GaN:Se_1.0e+15,,Inherited,,,,,,,,,DOPED_003522,,,Doped_Semiconductor,,,GaN_Se,GaN + Se @ 1.0e+15 cm^-3,,,Se,
Systematic_Generation,,5000000000000000.0,GaN:Se_5.0e+15,,Inherited,,,,,,,,,DOPED_003523,,,Doped_Semiconductor,,,GaN_Se,GaN + Se @ 5.0e+15 cm^-3,,,Se,
Systematic_Generation,,1e+16,GaN:Se_1.0e+16,,Inherited,,,,,,,,,DOPED_003524,,,Doped_Semiconductor,,,GaN_Se,GaN + Se @ 1.0e+16 cm^-3,,,Se,
Systematic_Generation,,5e+16,GaN:Se_5.0e+16,,Inherited,,,,,,,,,DOPED_003525,,,Doped_Semiconductor,,,GaN_Se,GaN + Se @ 5.0e+16 cm^-3,,,Se,
Systematic_Generation,,1e+17,GaN:Se_1.0e+17,,Inherited,,,,,,,,,DOPED_003526,,,Doped_Semiconductor,,,GaN_Se,GaN + Se @ 1.0e+17 cm^-3,,,Se,
Systematic_Generation,,5e+17,GaN:Se_5.0e+17,,Inherited,,,,,,,,,DOPED_003527,,,Doped_Semiconductor,,,GaN_Se,GaN + Se @ 5.0e+17 cm^-3,,,Se,
Systematic_Generation,,1e+18,GaN:Se_1.0e+18,,Inherited,,,,,,,,,DOPED_003528,,,Doped_Semiconductor,,,GaN_Se,GaN + Se @ 1.0e+18 cm^-3,,,Se,
Systematic_Generation,,5e+18,GaN:Se_5.0e+18,,Inherited,,,,,,,,,DOPED_003529,,,Doped_Semiconductor,,,GaN_Se,GaN + Se @ 5.0e+18 cm^-3,,,Se,
Systematic_Generation,,1e+19,GaN:Se_1.0e+19,,Inherited,,,,,,,,,DOPED_003530,,,Doped_Semiconductor,,,GaN_Se,GaN + Se @ 1.0e+19 cm^-3,,,Se,
Systematic_Generation,,5e+19,GaN:Se_5.0e+19,,Inherited,,,,,,,,,DOPED_003531,,,Doped_Semiconductor,,,GaN_Se,GaN + Se @ 5.0e+19 cm^-3,,,Se,
Systematic_Generation,,1e+20,GaN:Se_1.0e+20,,Inherited,,,,,,,,,DOPED_003532,,,Doped_Semiconductor,,,GaN_Se,GaN + Se @ 1.0e+20 cm^-3,,,Se,
Systematic_Generation,,1e+21,GaN:Se_1.0e+21,,Inherited,,,,,,,,,DOPED_003533,,,Doped_Semiconductor,,,GaN_Se,GaN + Se @ 1.0e+21 cm^-3,,,Se,
Systematic_Generation,,1000000000000000.0,GaN:Te_1.0e+15,,Inherited,,,,,,,,,DOPED_003534,,,Doped_Semiconductor,,,GaN_Te,GaN + Te @ 1.0e+15 cm^-3,,,Te,
Systematic_Generation,,5000000000000000.0,GaN:Te_5.0e+15,,Inherited,,,,,,,,,DOPED_003535,,,Doped_Semiconductor,,,GaN_Te,GaN + Te @ 5.0e+15 cm^-3,,,Te,
Systematic_Generation,,1e+16,GaN:Te_1.0e+16,,Inherited,,,,,,,,,DOPED_003536,,,Doped_Semiconductor,,,GaN_Te,GaN + Te @ 1.0e+16 cm^-3,,,Te,