source,n_elements,doping_concentration,name,termination,space_group,doping_level,volume_fraction,weight_percent,lattice_c,temperature,reinforcement,matrix,layers,material_id,molecular_weight,deposition_method,type,lattice_b,pdi,formula,composition,lattice_a,thickness_nm,dopant,substrate
Systematic_Generation,,,PP_Mn500k_PDI2.0,,,,,,,,,,,POLY_005979,500000,,Homopolymer,,2.0,{[]CC(C)[]},PP,,,,
Systematic_Generation,,,PP_Mn500k_PDI2.5,,,,,,,,,,,POLY_005980,500000,,Homopolymer,,2.5,{[]CC(C)[]},PP,,,,
Systematic_Generation,,,PP_Mn750k_PDI1.05,,,,,,,,,,,POLY_005981,750000,,Homopolymer,,1.05,{[]CC(C)[]},PP,,,,
Systematic_Generation,,,PP_Mn750k_PDI1.1,,,,,,,,,,,POLY_005982,750000,,Homopolymer,,1.1,{[]CC(C)[]},PP,,,,
Systematic_Generation,,,PP_Mn750k_PDI1.2,,,,,,,,,,,POLY_005983,750000,,Homopolymer,,1.2,{[]CC(C)[]},PP,,,,
Systematic_Generation,,,PP_Mn750k_PDI1.5,,,,,,,,,,,POLY_005984,750000,,Homopolymer,,1.5,{[]CC(C)[]},PP,,,,
Systematic_Generation,,,PP_Mn750k_PDI2.0,,,,,,,,,,,POLY_005985,750000,,Homopolymer,,2.0,{[]CC(C)[]},PP,,,,
Systematic_Generation,,,PP_Mn750k_PDI2.5,,,,,,,,,,,POLY_005986,750000,,Homopolymer,,2.5,{[]CC(C)[]},PP,,,,
Systematic_Generation,,,PP_Mn1000k_PDI1.05,,,,,,,,,,,POLY_005987,1000000,,Homopolymer,,1.05,{[]CC(C)[]},PP,,,,
Systematic_Generation,,,PP_Mn1000k_PDI1.1,,,,,,,,,,,POLY_005988,1000000,,Homopolymer,,1.1,{[]CC(C)[]},PP,,,,
Systematic_Generation,,,PP_Mn1000k_PDI1.2,,,,,,,,,,,POLY_005989,1000000,,Homopolymer,,1.2,{[]CC(C)[]},PP,,,,
Systematic_Generation,,,PP_Mn1000k_PDI1.5,,,,,,,,,,,POLY_005990,1000000,,Homopolymer,,1.5,{[]CC(C)[]},PP,,,,
Systematic_Generation,,,PP_Mn1000k_PDI2.0,,,,,,,,,,,POLY_005991,1000000,,Homopolymer,,2.0,{[]CC(C)[]},PP,,,,
Systematic_Generation,,,PP_Mn1000k_PDI2.5,,,,,,,,,,,POLY_005992,1000000,,Homopolymer,,2.5,{[]CC(C)[]},PP,,,,
Systematic_Generation,,,PS_Mn5k_PDI1.05,,,,,,,,,,,POLY_005993,5000,,Homopolymer,,1.05,{[]CC(c1ccccc1)[]},PS,,,,
Systematic_Generation,,,PS_Mn5k_PDI1.1,,,,,,,,,,,POLY_005994,5000,,Homopolymer,,1.1,{[]CC(c1ccccc1)[]},PS,,,,
Systematic_Generation,,,PS_Mn5k_PDI1.2,,,,,,,,,,,POLY_005995,5000,,Homopolymer,,1.2,{[]CC(c1ccccc1)[]},PS,,,,
Systematic_Generation,,,PS_Mn5k_PDI1.5,,,,,,,,,,,POLY_005996,5000,,Homopolymer,,1.5,{[]CC(c1ccccc1)[]},PS,,,,
Systematic_Generation,,,PS_Mn5k_PDI2.0,,,,,,,,,,,POLY_005997,5000,,Homopolymer,,2.0,{[]CC(c1ccccc1)[]},PS,,,,
Systematic_Generation,,,PS_Mn5k_PDI2.5,,,,,,,,,,,POLY_005998,5000,,Homopolymer,,2.5,{[]CC(c1ccccc1)[]},PS,,,,
Systematic_Generation,,,PS_Mn10k_PDI1.05,,,,,,,,,,,POLY_005999,10000,,Homopolymer,,1.05,{[]CC(c1ccccc1)[]},PS,,,,
Systematic_Generation,,,PS_Mn10k_PDI1.1,,,,,,,,,,,POLY_006000,10000,,Homopolymer,,1.1,{[]CC(c1ccccc1)[]},PS,,,,
Systematic_Generation,,,PS_Mn10k_PDI1.2,,,,,,,,,,,POLY_006001,10000,,Homopolymer,,1.2,{[]CC(c1ccccc1)[]},PS,,,,
Systematic_Generation,,,PS_Mn10k_PDI1.5,,,,,,,,,,,POLY_006002,10000,,Homopolymer,,1.5,{[]CC(c1ccccc1)[]},PS,,,,
Systematic_Generation,,,PS_Mn10k_PDI2.0,,,,,,,,,,,POLY_006003,10000,,Homopolymer,,2.0,{[]CC(c1ccccc1)[]},PS,,,,
Systematic_Generation,,,PS_Mn10k_PDI2.5,,,,,,,,,,,POLY_006004,10000,,Homopolymer,,2.5,{[]CC(c1ccccc1)[]},PS,,,,
Systematic_Generation,,,PS_Mn25k_PDI1.05,,,,,,,,,,,POLY_006005,25000,,Homopolymer,,1.05,{[]CC(c1ccccc1)[]},PS,,,,
Systematic_Generation,,,PS_Mn25k_PDI1.1,,,,,,,,,,,POLY_006006,25000,,Homopolymer,,1.1,{[]CC(c1ccccc1)[]},PS,,,,
Systematic_Generation,,,PS_Mn25k_PDI1.2,,,,,,,,,,,POLY_006007,25000,,Homopolymer,,1.2,{[]CC(c1ccccc1)[]},PS,,,,
Systematic_Generation,,,PS_Mn25k_PDI1.5,,,,,,,,,,,POLY_006008,25000,,Homopolymer,,1.5,{[]CC(c1ccccc1)[]},PS,,,,
Systematic_Generation,,,PS_Mn25k_PDI2.0,,,,,,,,,,,POLY_006009,25000,,Homopolymer,,2.0,{[]CC(c1ccccc1)[]},PS,,,,
Systematic_Generation,,,PS_Mn25k_PDI2.5,,,,,,,,,,,POLY_006010,25000,,Homopolymer,,2.5,{[]CC(c1ccccc1)[]},PS,,,,
Systematic_Generation,,,PS_Mn50k_PDI1.05,,,,,,,,,,,POLY_006011,50000,,Homopolymer,,1.05,{[]CC(c1ccccc1)[]},PS,,,,
Systematic_Generation,,,PS_Mn50k_PDI1.1,,,,,,,,,,,POLY_006012,50000,,Homopolymer,,1.1,{[]CC(c1ccccc1)[]},PS,,,,
Systematic_Generation,,,PS_Mn50k_PDI1.2,,,,,,,,,,,POLY_006013,50000,,Homopolymer,,1.2,{[]CC(c1ccccc1)[]},PS,,,,
Systematic_Generation,,,PS_Mn50k_PDI1.5,,,,,,,,,,,POLY_006014,50000,,Homopolymer,,1.5,{[]CC(c1ccccc1)[]},PS,,,,
Systematic_Generation,,,PS_Mn50k_PDI2.0,,,,,,,,,,,POLY_006015,50000,,Homopolymer,,2.0,{[]CC(c1ccccc1)[]},PS,,,,
Systematic_Generation,,,PS_Mn50k_PDI2.5,,,,,,,,,,,POLY_006016,50000,,Homopolymer,,2.5,{[]CC(c1ccccc1)[]},PS,,,,
Systematic_Generation,,,PS_Mn75k_PDI1.05,,,,,,,,,,,POLY_006017,75000,,Homopolymer,,1.05,{[]CC(c1ccccc1)[]},PS,,,,
Systematic_Generation,,,PS_Mn75k_PDI1.1,,,,,,,,,,,POLY_006018,75000,,Homopolymer,,1.1,{[]CC(c1ccccc1)[]},PS,,,,
Systematic_Generation,,,PS_Mn75k_PDI1.2,,,,,,,,,,,POLY_006019,75000,,Homopolymer,,1.2,{[]CC(c1ccccc1)[]},PS,,,,
Systematic_Generation,,,PS_Mn75k_PDI1.5,,,,,,,,,,,POLY_006020,75000,,Homopolymer,,1.5,{[]CC(c1ccccc1)[]},PS,,,,
Systematic_Generation,,,PS_Mn75k_PDI2.0,,,,,,,,,,,POLY_006021,75000,,Homopolymer,,2.0,{[]CC(c1ccccc1)[]},PS,,,,
Systematic_Generation,,,PS_Mn75k_PDI2.5,,,,,,,,,,,POLY_006022,75000,,Homopolymer,,2.5,{[]CC(c1ccccc1)[]},PS,,,,
Systematic_Generation,,,PS_Mn100k_PDI1.05,,,,,,,,,,,POLY_006023,100000,,Homopolymer,,1.05,{[]CC(c1ccccc1)[]},PS,,,,
Systematic_Generation,,,PS_Mn100k_PDI1.1,,,,,,,,,,,POLY_006024,100000,,Homopolymer,,1.1,{[]CC(c1ccccc1)[]},PS,,,,
Systematic_Generation,,,PS_Mn100k_PDI1.2,,,,,,,,,,,POLY_006025,100000,,Homopolymer,,1.2,{[]CC(c1ccccc1)[]},PS,,,,
Systematic_Generation,,,PS_Mn100k_PDI1.5,,,,,,,,,,,POLY_006026,100000,,Homopolymer,,1.5,{[]CC(c1ccccc1)[]},PS,,,,
Systematic_Generation,,,PS_Mn100k_PDI2.0,,,,,,,,,,,POLY_006027,100000,,Homopolymer,,2.0,{[]CC(c1ccccc1)[]},PS,,,,
Systematic_Generation,,,PS_Mn100k_PDI2.5,,,,,,,,,,,POLY_006028,100000,,Homopolymer,,2.5,{[]CC(c1ccccc1)[]},PS,,,,
Systematic_Generation,,,PS_Mn150k_PDI1.05,,,,,,,,,,,POLY_006029,150000,,Homopolymer,,1.05,{[]CC(c1ccccc1)[]},PS,,,,
Systematic_Generation,,,PS_Mn150k_PDI1.1,,,,,,,,,,,POLY_006030,150000,,Homopolymer,,1.1,{[]CC(c1ccccc1)[]},PS,,,,
Systematic_Generation,,,PS_Mn150k_PDI1.2,,,,,,,,,,,POLY_006031,150000,,Homopolymer,,1.2,{[]CC(c1ccccc1)[]},PS,,,,
Systematic_Generation,,,PS_Mn150k_PDI1.5,,,,,,,,,,,POLY_006032,150000,,Homopolymer,,1.5,{[]CC(c1ccccc1)[]},PS,,,,
Systematic_Generation,,,PS_Mn150k_PDI2.0,,,,,,,,,,,POLY_006033,150000,,Homopolymer,,2.0,{[]CC(c1ccccc1)[]},PS,,,,
Systematic_Generation,,,PS_Mn150k_PDI2.5,,,,,,,,,,,POLY_006034,150000,,Homopolymer,,2.5,{[]CC(c1ccccc1)[]},PS,,,,
Systematic_Generation,,,PS_Mn200k_PDI1.05,,,,,,,,,,,POLY_006035,200000,,Homopolymer,,1.05,{[]CC(c1ccccc1)[]},PS,,,,
Systematic_Generation,,,PS_Mn200k_PDI1.1,,,,,,,,,,,POLY_006036,200000,,Homopolymer,,1.1,{[]CC(c1ccccc1)[]},PS,,,,
Systematic_Generation,,,PS_Mn200k_PDI1.2,,,,,,,,,,,POLY_006037,200000,,Homopolymer,,1.2,{[]CC(c1ccccc1)[]},PS,,,,
Systematic_Generation,,,PS_Mn200k_PDI1.5,,,,,,,,,,,POLY_006038,200000,,Homopolymer,,1.5,{[]CC(c1ccccc1)[]},PS,,,,
Systematic_Generation,,,PS_Mn200k_PDI2.0,,,,,,,,,,,POLY_006039,200000,,Homopolymer,,2.0,{[]CC(c1ccccc1)[]},PS,,,,
Systematic_Generation,,,PS_Mn200k_PDI2.5,,,,,,,,,,,POLY_006040,200000,,Homopolymer,,2.5,{[]CC(c1ccccc1)[]},PS,,,,
Systematic_Generation,,,PS_Mn300k_PDI1.05,,,,,,,,,,,POLY_006041,300000,,Homopolymer,,1.05,{[]CC(c1ccccc1)[]},PS,,,,
Systematic_Generation,,,PS_Mn300k_PDI1.1,,,,,,,,,,,POLY_006042,300000,,Homopolymer,,1.1,{[]CC(c1ccccc1)[]},PS,,,,
Systematic_Generation,,,PS_Mn300k_PDI1.2,,,,,,,,,,,POLY_006043,300000,,Homopolymer,,1.2,{[]CC(c1ccccc1)[]},PS,,,,
Systematic_Generation,,,PS_Mn300k_PDI1.5,,,,,,,,,,,POLY_006044,300000,,Homopolymer,,1.5,{[]CC(c1ccccc1)[]},PS,,,,
Systematic_Generation,,,PS_Mn300k_PDI2.0,,,,,,,,,,,POLY_006045,300000,,Homopolymer,,2.0,{[]CC(c1ccccc1)[]},PS,,,,
Systematic_Generation,,,PS_Mn300k_PDI2.5,,,,,,,,,,,POLY_006046,300000,,Homopolymer,,2.5,{[]CC(c1ccccc1)[]},PS,,,,
Systematic_Generation,,,PS_Mn500k_PDI1.05,,,,,,,,,,,POLY_006047,500000,,Homopolymer,,1.05,{[]CC(c1ccccc1)[]},PS,,,,
Systematic_Generation,,,PS_Mn500k_PDI1.1,,,,,,,,,,,POLY_006048,500000,,Homopolymer,,1.1,{[]CC(c1ccccc1)[]},PS,,,,
Systematic_Generation,,,PS_Mn500k_PDI1.2,,,,,,,,,,,POLY_006049,500000,,Homopolymer,,1.2,{[]CC(c1ccccc1)[]},PS,,,,
Systematic_Generation,,,PS_Mn500k_PDI1.5,,,,,,,,,,,POLY_006050,500000,,Homopolymer,,1.5,{[]CC(c1ccccc1)[]},PS,,,,
Systematic_Generation,,,PS_Mn500k_PDI2.0,,,,,,,,,,,POLY_006051,500000,,Homopolymer,,2.0,{[]CC(c1ccccc1)[]},PS,,,,
Systematic_Generation,,,PS_Mn500k_PDI2.5,,,,,,,,,,,POLY_006052,500000,,Homopolymer,,2.5,{[]CC(c1ccccc1)[]},PS,,,,
Systematic_Generation,,,PS_Mn750k_PDI1.05,,,,,,,,,,,POLY_006053,750000,,Homopolymer,,1.05,{[]CC(c1ccccc1)[]},PS,,,,
Systematic_Generation,,,PS_Mn750k_PDI1.1,,,,,,,,,,,POLY_006054,750000,,Homopolymer,,1.1,{[]CC(c1ccccc1)[]},PS,,,,
Systematic_Generation,,,PS_Mn750k_PDI1.2,,,,,,,,,,,POLY_006055,750000,,Homopolymer,,1.2,{[]CC(c1ccccc1)[]},PS,,,,
Systematic_Generation,,,PS_Mn750k_PDI1.5,,,,,,,,,,,POLY_006056,750000,,Homopolymer,,1.5,{[]CC(c1ccccc1)[]},PS,,,,
Systematic_Generation,,,PS_Mn750k_PDI2.0,,,,,,,,,,,POLY_006057,750000,,Homopolymer,,2.0,{[]CC(c1ccccc1)[]},PS,,,,
Systematic_Generation,,,PS_Mn750k_PDI2.5,,,,,,,,,,,POLY_006058,750000,,Homopolymer,,2.5,{[]CC(c1ccccc1)[]},PS,,,,
Systematic_Generation,,,PS_Mn1000k_PDI1.05,,,,,,,,,,,POLY_006059,1000000,,Homopolymer,,1.05,{[]CC(c1ccccc1)[]},PS,,,,
Systematic_Generation,,,PS_Mn1000k_PDI1.1,,,,,,,,,,,POLY_006060,1000000,,Homopolymer,,1.1,{[]CC(c1ccccc1)[]},PS,,,,
Systematic_Generation,,,PS_Mn1000k_PDI1.2,,,,,,,,,,,POLY_006061,1000000,,Homopolymer,,1.2,{[]CC(c1ccccc1)[]},PS,,,,
Systematic_Generation,,,PS_Mn1000k_PDI1.5,,,,,,,,,,,POLY_006062,1000000,,Homopolymer,,1.5,{[]CC(c1ccccc1)[]},PS,,,,
Systematic_Generation,,,PS_Mn1000k_PDI2.0,,,,,,,,,,,POLY_006063,1000000,,Homopolymer,,2.0,{[]CC(c1ccccc1)[]},PS,,,,
Systematic_Generation,,,PS_Mn1000k_PDI2.5,,,,,,,,,,,POLY_006064,1000000,,Homopolymer,,2.5,{[]CC(c1ccccc1)[]},PS,,,,
Systematic_Generation,,,PMMA_Mn5k_PDI1.05,,,,,,,,,,,POLY_006065,5000,,Homopolymer,,1.05,{[]CC(C)(C(=O)OC)[]},PMMA,,,,
Systematic_Generation,,,PMMA_Mn5k_PDI1.1,,,,,,,,,,,POLY_006066,5000,,Homopolymer,,1.1,{[]CC(C)(C(=O)OC)[]},PMMA,,,,
Systematic_Generation,,,PMMA_Mn5k_PDI1.2,,,,,,,,,,,POLY_006067,5000,,Homopolymer,,1.2,{[]CC(C)(C(=O)OC)[]},PMMA,,,,
Systematic_Generation,,,PMMA_Mn5k_PDI1.5,,,,,,,,,,,POLY_006068,5000,,Homopolymer,,1.5,{[]CC(C)(C(=O)OC)[]},PMMA,,,,
Systematic_Generation,,,PMMA_Mn5k_PDI2.0,,,,,,,,,,,POLY_006069,5000,,Homopolymer,,2.0,{[]CC(C)(C(=O)OC)[]},PMMA,,,,
Systematic_Generation,,,PMMA_Mn5k_PDI2.5,,,,,,,,,,,POLY_006070,5000,,Homopolymer,,2.5,{[]CC(C)(C(=O)OC)[]},PMMA,,,,
Systematic_Generation,,,PMMA_Mn10k_PDI1.05,,,,,,,,,,,POLY_006071,10000,,Homopolymer,,1.05,{[]CC(C)(C(=O)OC)[]},PMMA,,,,
Systematic_Generation,,,PMMA_Mn10k_PDI1.1,,,,,,,,,,,POLY_006072,10000,,Homopolymer,,1.1,{[]CC(C)(C(=O)OC)[]},PMMA,,,,
Systematic_Generation,,,PMMA_Mn10k_PDI1.2,,,,,,,,,,,POLY_006073,10000,,Homopolymer,,1.2,{[]CC(C)(C(=O)OC)[]},PMMA,,,,
Systematic_Generation,,,PMMA_Mn10k_PDI1.5,,,,,,,,,,,POLY_006074,10000,,Homopolymer,,1.5,{[]CC(C)(C(=O)OC)[]},PMMA,,,,
Systematic_Generation,,,PMMA_Mn10k_PDI2.0,,,,,,,,,,,POLY_006075,10000,,Homopolymer,,2.0,{[]CC(C)(C(=O)OC)[]},PMMA,,,,
Systematic_Generation,,,PMMA_Mn10k_PDI2.5,,,,,,,,,,,POLY_006076,10000,,Homopolymer,,2.5,{[]CC(C)(C(=O)OC)[]},PMMA,,,,
Systematic_Generation,,,PMMA_Mn25k_PDI1.05,,,,,,,,,,,POLY_006077,25000,,Homopolymer,,1.05,{[]CC(C)(C(=O)OC)[]},PMMA,,,,
Systematic_Generation,,,PMMA_Mn25k_PDI1.1,,,,,,,,,,,POLY_006078,25000,,Homopolymer,,1.1,{[]CC(C)(C(=O)OC)[]},PMMA,,,,
Systematic_Generation,,,PMMA_Mn25k_PDI1.2,,,,,,,,,,,POLY_006079,25000,,Homopolymer,,1.2,{[]CC(C)(C(=O)OC)[]},PMMA,,,,
Systematic_Generation,,,PMMA_Mn25k_PDI1.5,,,,,,,,,,,POLY_006080,25000,,Homopolymer,,1.5,{[]CC(C)(C(=O)OC)[]},PMMA,,,,
Systematic_Generation,,,PMMA_Mn25k_PDI2.0,,,,,,,,,,,POLY_006081,25000,,Homopolymer,,2.0,{[]CC(C)(C(=O)OC)[]},PMMA,,,,
Systematic_Generation,,,PMMA_Mn25k_PDI2.5,,,,,,,,,,,POLY_006082,25000,,Homopolymer,,2.5,{[]CC(C)(C(=O)OC)[]},PMMA,,,,
Systematic_Generation,,,PMMA_Mn50k_PDI1.05,,,,,,,,,,,POLY_006083,50000,,Homopolymer,,1.05,{[]CC(C)(C(=O)OC)[]},PMMA,,,,
Systematic_Generation,,,PMMA_Mn50k_PDI1.1,,,,,,,,,,,POLY_006084,50000,,Homopolymer,,1.1,{[]CC(C)(C(=O)OC)[]},PMMA,,,,
Systematic_Generation,,,PMMA_Mn50k_PDI1.2,,,,,,,,,,,POLY_006085,50000,,Homopolymer,,1.2,{[]CC(C)(C(=O)OC)[]},PMMA,,,,
Systematic_Generation,,,PMMA_Mn50k_PDI1.5,,,,,,,,,,,POLY_006086,50000,,Homopolymer,,1.5,{[]CC(C)(C(=O)OC)[]},PMMA,,,,
Systematic_Generation,,,PMMA_Mn50k_PDI2.0,,,,,,,,,,,POLY_006087,50000,,Homopolymer,,2.0,{[]CC(C)(C(=O)OC)[]},PMMA,,,,
Systematic_Generation,,,PMMA_Mn50k_PDI2.5,,,,,,,,,,,POLY_006088,50000,,Homopolymer,,2.5,{[]CC(C)(C(=O)OC)[]},PMMA,,,,
Systematic_Generation,,,PMMA_Mn75k_PDI1.05,,,,,,,,,,,POLY_006089,75000,,Homopolymer,,1.05,{[]CC(C)(C(=O)OC)[]},PMMA,,,,
Systematic_Generation,,,PMMA_Mn75k_PDI1.1,,,,,,,,,,,POLY_006090,75000,,Homopolymer,,1.1,{[]CC(C)(C(=O)OC)[]},PMMA,,,,
Systematic_Generation,,,PMMA_Mn75k_PDI1.2,,,,,,,,,,,POLY_006091,75000,,Homopolymer,,1.2,{[]CC(C)(C(=O)OC)[]},PMMA,,,,
Systematic_Generation,,,PMMA_Mn75k_PDI1.5,,,,,,,,,,,POLY_006092,75000,,Homopolymer,,1.5,{[]CC(C)(C(=O)OC)[]},PMMA,,,,
Systematic_Generation,,,PMMA_Mn75k_PDI2.0,,,,,,,,,,,POLY_006093,75000,,Homopolymer,,2.0,{[]CC(C)(C(=O)OC)[]},PMMA,,,,
Systematic_Generation,,,PMMA_Mn75k_PDI2.5,,,,,,,,,,,POLY_006094,75000,,Homopolymer,,2.5,{[]CC(C)(C(=O)OC)[]},PMMA,,,,
Systematic_Generation,,,PMMA_Mn100k_PDI1.05,,,,,,,,,,,POLY_006095,100000,,Homopolymer,,1.05,{[]CC(C)(C(=O)OC)[]},PMMA,,,,
Systematic_Generation,,,PMMA_Mn100k_PDI1.1,,,,,,,,,,,POLY_006096,100000,,Homopolymer,,1.1,{[]CC(C)(C(=O)OC)[]},PMMA,,,,
Systematic_Generation,,,PMMA_Mn100k_PDI1.2,,,,,,,,,,,POLY_006097,100000,,Homopolymer,,1.2,{[]CC(C)(C(=O)OC)[]},PMMA,,,,
Systematic_Generation,,,PMMA_Mn100k_PDI1.5,,,,,,,,,,,POLY_006098,100000,,Homopolymer,,1.5,{[]CC(C)(C(=O)OC)[]},PMMA,,,,
Systematic_Generation,,,PMMA_Mn100k_PDI2.0,,,,,,,,,,,POLY_006099,100000,,Homopolymer,,2.0,{[]CC(C)(C(=O)OC)[]},PMMA,,,,
Systematic_Generation,,,PMMA_Mn100k_PDI2.5,,,,,,,,,,,POLY_006100,100000,,Homopolymer,,2.5,{[]CC(C)(C(=O)OC)[]},PMMA,,,,
Systematic_Generation,,,PMMA_Mn150k_PDI1.05,,,,,,,,,,,POLY_006101,150000,,Homopolymer,,1.05,{[]CC(C)(C(=O)OC)[]},PMMA,,,,
Systematic_Generation,,,PMMA_Mn150k_PDI1.1,,,,,,,,,,,POLY_006102,150000,,Homopolymer,,1.1,{[]CC(C)(C(=O)OC)[]},PMMA,,,,
Systematic_Generation,,,PMMA_Mn150k_PDI1.2,,,,,,,,,,,POLY_006103,150000,,Homopolymer,,1.2,{[]CC(C)(C(=O)OC)[]},PMMA,,,,
Systematic_Generation,,,PMMA_Mn150k_PDI1.5,,,,,,,,,,,POLY_006104,150000,,Homopolymer,,1.5,{[]CC(C)(C(=O)OC)[]},PMMA,,,,
Systematic_Generation,,,PMMA_Mn150k_PDI2.0,,,,,,,,,,,POLY_006105,150000,,Homopolymer,,2.0,{[]CC(C)(C(=O)OC)[]},PMMA,,,,
Systematic_Generation,,,PMMA_Mn150k_PDI2.5,,,,,,,,,,,POLY_006106,150000,,Homopolymer,,2.5,{[]CC(C)(C(=O)OC)[]},PMMA,,,,
Systematic_Generation,,,PMMA_Mn200k_PDI1.05,,,,,,,,,,,POLY_006107,200000,,Homopolymer,,1.05,{[]CC(C)(C(=O)OC)[]},PMMA,,,,
Systematic_Generation,,,PMMA_Mn200k_PDI1.1,,,,,,,,,,,POLY_006108,200000,,Homopolymer,,1.1,{[]CC(C)(C(=O)OC)[]},PMMA,,,,
Systematic_Generation,,,PMMA_Mn200k_PDI1.2,,,,,,,,,,,POLY_006109,200000,,Homopolymer,,1.2,{[]CC(C)(C(=O)OC)[]},PMMA,,,,
Systematic_Generation,,,PMMA_Mn200k_PDI1.5,,,,,,,,,,,POLY_006110,200000,,Homopolymer,,1.5,{[]CC(C)(C(=O)OC)[]},PMMA,,,,
Systematic_Generation,,,PMMA_Mn200k_PDI2.0,,,,,,,,,,,POLY_006111,200000,,Homopolymer,,2.0,{[]CC(C)(C(=O)OC)[]},PMMA,,,,
Systematic_Generation,,,PMMA_Mn200k_PDI2.5,,,,,,,,,,,POLY_006112,200000,,Homopolymer,,2.5,{[]CC(C)(C(=O)OC)[]},PMMA,,,,
Systematic_Generation,,,PMMA_Mn300k_PDI1.05,,,,,,,,,,,POLY_006113,300000,,Homopolymer,,1.05,{[]CC(C)(C(=O)OC)[]},PMMA,,,,
Systematic_Generation,,,PMMA_Mn300k_PDI1.1,,,,,,,,,,,POLY_006114,300000,,Homopolymer,,1.1,{[]CC(C)(C(=O)OC)[]},PMMA,,,,
Systematic_Generation,,,PMMA_Mn300k_PDI1.2,,,,,,,,,,,POLY_006115,300000,,Homopolymer,,1.2,{[]CC(C)(C(=O)OC)[]},PMMA,,,,
Systematic_Generation,,,PMMA_Mn300k_PDI1.5,,,,,,,,,,,POLY_006116,300000,,Homopolymer,,1.5,{[]CC(C)(C(=O)OC)[]},PMMA,,,,
Systematic_Generation,,,PMMA_Mn300k_PDI2.0,,,,,,,,,,,POLY_006117,300000,,Homopolymer,,2.0,{[]CC(C)(C(=O)OC)[]},PMMA,,,,
Systematic_Generation,,,PMMA_Mn300k_PDI2.5,,,,,,,,,,,POLY_006118,300000,,Homopolymer,,2.5,{[]CC(C)(C(=O)OC)[]},PMMA,,,,
Systematic_Generation,,,PMMA_Mn500k_PDI1.05,,,,,,,,,,,POLY_006119,500000,,Homopolymer,,1.05,{[]CC(C)(C(=O)OC)[]},PMMA,,,,
Systematic_Generation,,,PMMA_Mn500k_PDI1.1,,,,,,,,,,,POLY_006120,500000,,Homopolymer,,1.1,{[]CC(C)(C(=O)OC)[]},PMMA,,,,
Systematic_Generation,,,PMMA_Mn500k_PDI1.2,,,,,,,,,,,POLY_006121,500000,,Homopolymer,,1.2,{[]CC(C)(C(=O)OC)[]},PMMA,,,,
Systematic_Generation,,,PMMA_Mn500k_PDI1.5,,,,,,,,,,,POLY_006122,500000,,Homopolymer,,1.5,{[]CC(C)(C(=O)OC)[]},PMMA,,,,
Systematic_Generation,,,PMMA_Mn500k_PDI2.0,,,,,,,,,,,POLY_006123,500000,,Homopolymer,,2.0,{[]CC(C)(C(=O)OC)[]},PMMA,,,,
Systematic_Generation,,,PMMA_Mn500k_PDI2.5,,,,,,,,,,,POLY_006124,500000,,Homopolymer,,2.5,{[]CC(C)(C(=O)OC)[]},PMMA,,,,
Systematic_Generation,,,PMMA_Mn750k_PDI1.05,,,,,,,,,,,POLY_006125,750000,,Homopolymer,,1.05,{[]CC(C)(C(=O)OC)[]},PMMA,,,,
Systematic_Generation,,,PMMA_Mn750k_PDI1.1,,,,,,,,,,,POLY_006126,750000,,Homopolymer,,1.1,{[]CC(C)(C(=O)OC)[]},PMMA,,,,
Systematic_Generation,,,PMMA_Mn750k_PDI1.2,,,,,,,,,,,POLY_006127,750000,,Homopolymer,,1.2,{[]CC(C)(C(=O)OC)[]},PMMA,,,,
Systematic_Generation,,,PMMA_Mn750k_PDI1.5,,,,,,,,,,,POLY_006128,750000,,Homopolymer,,1.5,{[]CC(C)(C(=O)OC)[]},PMMA,,,,
Systematic_Generation,,,PMMA_Mn750k_PDI2.0,,,,,,,,,,,POLY_006129,750000,,Homopolymer,,2.0,{[]CC(C)(C(=O)OC)[]},PMMA,,,,
Systematic_Generation,,,PMMA_Mn750k_PDI2.5,,,,,,,,,,,POLY_006130,750000,,Homopolymer,,2.5,{[]CC(C)(C(=O)OC)[]},PMMA,,,,
Systematic_Generation,,,PMMA_Mn1000k_PDI1.05,,,,,,,,,,,POLY_006131,1000000,,Homopolymer,,1.05,{[]CC(C)(C(=O)OC)[]},PMMA,,,,
Systematic_Generation,,,PMMA_Mn1000k_PDI1.1,,,,,,,,,,,POLY_006132,1000000,,Homopolymer,,1.1,{[]CC(C)(C(=O)OC)[]},PMMA,,,,
Systematic_Generation,,,PMMA_Mn1000k_PDI1.2,,,,,,,,,,,POLY_006133,1000000,,Homopolymer,,1.2,{[]CC(C)(C(=O)OC)[]},PMMA,,,,
Systematic_Generation,,,PMMA_Mn1000k_PDI1.5,,,,,,,,,,,POLY_006134,1000000,,Homopolymer,,1.5,{[]CC(C)(C(=O)OC)[]},PMMA,,,,
Systematic_Generation,,,PMMA_Mn1000k_PDI2.0,,,,,,,,,,,POLY_006135,1000000,,Homopolymer,,2.0,{[]CC(C)(C(=O)OC)[]},PMMA,,,,
Systematic_Generation,,,PMMA_Mn1000k_PDI2.5,,,,,,,,,,,POLY_006136,1000000,,Homopolymer,,2.5,{[]CC(C)(C(=O)OC)[]},PMMA,,,,
Systematic_Generation,,,PVC_Mn5k_PDI1.05,,,,,,,,,,,POLY_006137,5000,,Homopolymer,,1.05,{[]CC(Cl)[]},PVC,,,,
Systematic_Generation,,,PVC_Mn5k_PDI1.1,,,,,,,,,,,POLY_006138,5000,,Homopolymer,,1.1,{[]CC(Cl)[]},PVC,,,,
Systematic_Generation,,,PVC_Mn5k_PDI1.2,,,,,,,,,,,POLY_006139,5000,,Homopolymer,,1.2,{[]CC(Cl)[]},PVC,,,,
Systematic_Generation,,,PVC_Mn5k_PDI1.5,,,,,,,,,,,POLY_006140,5000,,Homopolymer,,1.5,{[]CC(Cl)[]},PVC,,,,
Systematic_Generation,,,PVC_Mn5k_PDI2.0,,,,,,,,,,,POLY_006141,5000,,Homopolymer,,2.0,{[]CC(Cl)[]},PVC,,,,
Systematic_Generation,,,PVC_Mn5k_PDI2.5,,,,,,,,,,,POLY_006142,5000,,Homopolymer,,2.5,{[]CC(Cl)[]},PVC,,,,
Systematic_Generation,,,PVC_Mn10k_PDI1.05,,,,,,,,,,,POLY_006143,10000,,Homopolymer,,1.05,{[]CC(Cl)[]},PVC,,,,
Systematic_Generation,,,PVC_Mn10k_PDI1.1,,,,,,,,,,,POLY_006144,10000,,Homopolymer,,1.1,{[]CC(Cl)[]},PVC,,,,
Systematic_Generation,,,PVC_Mn10k_PDI1.2,,,,,,,,,,,POLY_006145,10000,,Homopolymer,,1.2,{[]CC(Cl)[]},PVC,,,,
Systematic_Generation,,,PVC_Mn10k_PDI1.5,,,,,,,,,,,POLY_006146,10000,,Homopolymer,,1.5,{[]CC(Cl)[]},PVC,,,,
Systematic_Generation,,,PVC_Mn10k_PDI2.0,,,,,,,,,,,POLY_006147,10000,,Homopolymer,,2.0,{[]CC(Cl)[]},PVC,,,,
Systematic_Generation,,,PVC_Mn10k_PDI2.5,,,,,,,,,,,POLY_006148,10000,,Homopolymer,,2.5,{[]CC(Cl)[]},PVC,,,,
Systematic_Generation,,,PVC_Mn25k_PDI1.05,,,,,,,,,,,POLY_006149,25000,,Homopolymer,,1.05,{[]CC(Cl)[]},PVC,,,,