source,n_elements,doping_concentration,name,termination,space_group,doping_level,volume_fraction,weight_percent,lattice_c,temperature,reinforcement,matrix,layers,material_id,molecular_weight,deposition_method,type,lattice_b,pdi,formula,composition,lattice_a,thickness_nm,dopant,substrate
Systematic_Generation,,,MoTe,,Fm-3m,,,,6.677,,,,,BIN_000708,,,Binary_Chalcogenide,5.409,,MoTe,Mo:Te = 1:1,6.253,,,
Systematic_Generation,,,MoTe2,,Fm-3m,,,,19.903,,,,,BIN_000709,,,Binary_Chalcogenide,4.921,,MoTe2,Mo:Te = 1:2,7.279,,,
Systematic_Generation,,,Mo2Te3,,R-3m,,,,13.753,,,,,BIN_000710,,,Binary_Chalcogenide,7.038,,Mo2Te3,Mo:Te = 2:3,6.389,,,
Systematic_Generation,,,Mo3Te4,,P-3m1,,,,15.888,,,,,BIN_000711,,,Binary_Chalcogenide,5.119,,Mo3Te4,Mo:Te = 3:4,5.846,,,
Systematic_Generation,,,TcS,,Fm-3m,,,,15.753,,,,,BIN_000712,,,Binary_Chalcogenide,4.291,,TcS,Tc:S = 1:1,6.205,,,
Systematic_Generation,,,TcS2,,P63/mmc,,,,12.657,,,,,BIN_000713,,,Binary_Chalcogenide,7.3,,TcS2,Tc:S = 1:2,3.839,,,
Systematic_Generation,,,Tc2S3,,P63/mmc,,,,13.769,,,,,BIN_000714,,,Binary_Chalcogenide,5.65,,Tc2S3,Tc:S = 2:3,4.577,,,
Systematic_Generation,,,Tc3S4,,R-3m,,,,19.821,,,,,BIN_000715,,,Binary_Chalcogenide,6.37,,Tc3S4,Tc:S = 3:4,5.609,,,
Systematic_Generation,,,TcSe,,P-3m1,,,,12.828,,,,,BIN_000716,,,Binary_Chalcogenide,5.305,,TcSe,Tc:Se = 1:1,5.908,,,
Systematic_Generation,,,TcSe2,,P63/mmc,,,,5.628,,,,,BIN_000717,,,Binary_Chalcogenide,6.824,,TcSe2,Tc:Se = 1:2,5.225,,,
Systematic_Generation,,,Tc2Se3,,P63/mmc,,,,19.177,,,,,BIN_000718,,,Binary_Chalcogenide,6.001,,Tc2Se3,Tc:Se = 2:3,3.558,,,
Systematic_Generation,,,Tc3Se4,,P63/mmc,,,,15.11,,,,,BIN_000719,,,Binary_Chalcogenide,6.242,,Tc3Se4,Tc:Se = 3:4,5.082,,,
Systematic_Generation,,,TcTe,,P-3m1,,,,15.185,,,,,BIN_000720,,,Binary_Chalcogenide,4.491,,TcTe,Tc:Te = 1:1,6.432,,,
Systematic_Generation,,,TcTe2,,R-3m,,,,19.295,,,,,BIN_000721,,,Binary_Chalcogenide,5.575,,TcTe2,Tc:Te = 1:2,4.955,,,
Systematic_Generation,,,Tc2Te3,,Fm-3m,,,,7.657,,,,,BIN_000722,,,Binary_Chalcogenide,5.643,,Tc2Te3,Tc:Te = 2:3,6.499,,,
Systematic_Generation,,,Tc3Te4,,P63/mmc,,,,18.712,,,,,BIN_000723,,,Binary_Chalcogenide,7.402,,Tc3Te4,Tc:Te = 3:4,4.395,,,
Systematic_Generation,,,RuS,,P63/mmc,,,,12.938,,,,,BIN_000724,,,Binary_Chalcogenide,5.774,,RuS,Ru:S = 1:1,3.897,,,
Systematic_Generation,,,RuS2,,R-3m,,,,16.247,,,,,BIN_000725,,,Binary_Chalcogenide,7.553,,RuS2,Ru:S = 1:2,5.213,,,
Systematic_Generation,,,Ru2S3,,P63/mmc,,,,8.919,,,,,BIN_000726,,,Binary_Chalcogenide,7.984,,Ru2S3,Ru:S = 2:3,3.676,,,
Systematic_Generation,,,Ru3S4,,P63/mmc,,,,17.274,,,,,BIN_000727,,,Binary_Chalcogenide,6.611,,Ru3S4,Ru:S = 3:4,6.215,,,
Systematic_Generation,,,RuSe,,R-3m,,,,6.637,,,,,BIN_000728,,,Binary_Chalcogenide,3.972,,RuSe,Ru:Se = 1:1,7.853,,,
Systematic_Generation,,,RuSe2,,R-3m,,,,9.414,,,,,BIN_000729,,,Binary_Chalcogenide,4.461,,RuSe2,Ru:Se = 1:2,5.12,,,
Systematic_Generation,,,Ru2Se3,,P-3m1,,,,18.36,,,,,BIN_000730,,,Binary_Chalcogenide,4.635,,Ru2Se3,Ru:Se = 2:3,7.641,,,
Systematic_Generation,,,Ru3Se4,,R-3m,,,,12.744,,,,,BIN_000731,,,Binary_Chalcogenide,7.704,,Ru3Se4,Ru:Se = 3:4,5.212,,,
Systematic_Generation,,,RuTe,,R-3m,,,,10.344,,,,,BIN_000732,,,Binary_Chalcogenide,7.032,,RuTe,Ru:Te = 1:1,5.603,,,
Systematic_Generation,,,RuTe2,,P63/mmc,,,,5.385,,,,,BIN_000733,,,Binary_Chalcogenide,7.183,,RuTe2,Ru:Te = 1:2,7.09,,,
Systematic_Generation,,,Ru2Te3,,Fm-3m,,,,19.473,,,,,BIN_000734,,,Binary_Chalcogenide,7.474,,Ru2Te3,Ru:Te = 2:3,6.412,,,
Systematic_Generation,,,Ru3Te4,,R-3m,,,,6.606,,,,,BIN_000735,,,Binary_Chalcogenide,5.861,,Ru3Te4,Ru:Te = 3:4,6.052,,,
Systematic_Generation,,,RhS,,Fm-3m,,,,7.023,,,,,BIN_000736,,,Binary_Chalcogenide,5.545,,RhS,Rh:S = 1:1,4.241,,,
Systematic_Generation,,,RhS2,,P63/mmc,,,,11.905,,,,,BIN_000737,,,Binary_Chalcogenide,7.516,,RhS2,Rh:S = 1:2,3.575,,,
Systematic_Generation,,,Rh2S3,,Fm-3m,,,,12.844,,,,,BIN_000738,,,Binary_Chalcogenide,6.083,,Rh2S3,Rh:S = 2:3,5.118,,,
Systematic_Generation,,,Rh3S4,,R-3m,,,,5.524,,,,,BIN_000739,,,Binary_Chalcogenide,3.663,,Rh3S4,Rh:S = 3:4,7.941,,,
Systematic_Generation,,,RhSe,,R-3m,,,,14.109,,,,,BIN_000740,,,Binary_Chalcogenide,6.754,,RhSe,Rh:Se = 1:1,4.203,,,
Systematic_Generation,,,RhSe2,,P63/mmc,,,,14.037,,,,,BIN_000741,,,Binary_Chalcogenide,5.896,,RhSe2,Rh:Se = 1:2,4.734,,,
Systematic_Generation,,,Rh2Se3,,P-3m1,,,,8.529,,,,,BIN_000742,,,Binary_Chalcogenide,3.766,,Rh2Se3,Rh:Se = 2:3,7.11,,,
Systematic_Generation,,,Rh3Se4,,Fm-3m,,,,8.409,,,,,BIN_000743,,,Binary_Chalcogenide,4.523,,Rh3Se4,Rh:Se = 3:4,4.848,,,
Systematic_Generation,,,RhTe,,P63/mmc,,,,5.954,,,,,BIN_000744,,,Binary_Chalcogenide,5.511,,RhTe,Rh:Te = 1:1,3.826,,,
Systematic_Generation,,,RhTe2,,R-3m,,,,12.356,,,,,BIN_000745,,,Binary_Chalcogenide,6.834,,RhTe2,Rh:Te = 1:2,4.122,,,
Systematic_Generation,,,Rh2Te3,,R-3m,,,,11.782,,,,,BIN_000746,,,Binary_Chalcogenide,6.001,,Rh2Te3,Rh:Te = 2:3,4.47,,,
Systematic_Generation,,,Rh3Te4,,P-3m1,,,,8.272,,,,,BIN_000747,,,Binary_Chalcogenide,5.039,,Rh3Te4,Rh:Te = 3:4,6.135,,,
Systematic_Generation,,,PdS,,Fm-3m,,,,16.521,,,,,BIN_000748,,,Binary_Chalcogenide,7.79,,PdS,Pd:S = 1:1,3.796,,,
Systematic_Generation,,,PdS2,,Fm-3m,,,,16.878,,,,,BIN_000749,,,Binary_Chalcogenide,4.335,,PdS2,Pd:S = 1:2,3.741,,,
Systematic_Generation,,,Pd2S3,,P-3m1,,,,7.069,,,,,BIN_000750,,,Binary_Chalcogenide,5.65,,Pd2S3,Pd:S = 2:3,3.527,,,
Systematic_Generation,,,Pd3S4,,P-3m1,,,,5.178,,,,,BIN_000751,,,Binary_Chalcogenide,4.305,,Pd3S4,Pd:S = 3:4,4.777,,,
Systematic_Generation,,,PdSe,,P-3m1,,,,12.892,,,,,BIN_000752,,,Binary_Chalcogenide,3.771,,PdSe,Pd:Se = 1:1,7.722,,,
Systematic_Generation,,,PdSe2,,P63/mmc,,,,10.98,,,,,BIN_000753,,,Binary_Chalcogenide,3.876,,PdSe2,Pd:Se = 1:2,7.0,,,
Systematic_Generation,,,Pd2Se3,,P63/mmc,,,,19.414,,,,,BIN_000754,,,Binary_Chalcogenide,4.063,,Pd2Se3,Pd:Se = 2:3,6.686,,,
Systematic_Generation,,,Pd3Se4,,Fm-3m,,,,18.279,,,,,BIN_000755,,,Binary_Chalcogenide,7.009,,Pd3Se4,Pd:Se = 3:4,7.129,,,
Systematic_Generation,,,PdTe,,P63/mmc,,,,19.037,,,,,BIN_000756,,,Binary_Chalcogenide,4.334,,PdTe,Pd:Te = 1:1,4.622,,,
Systematic_Generation,,,PdTe2,,P-3m1,,,,15.217,,,,,BIN_000757,,,Binary_Chalcogenide,3.736,,PdTe2,Pd:Te = 1:2,6.502,,,
Systematic_Generation,,,Pd2Te3,,R-3m,,,,6.236,,,,,BIN_000758,,,Binary_Chalcogenide,7.776,,Pd2Te3,Pd:Te = 2:3,3.525,,,
Systematic_Generation,,,Pd3Te4,,Fm-3m,,,,5.255,,,,,BIN_000759,,,Binary_Chalcogenide,5.863,,Pd3Te4,Pd:Te = 3:4,7.247,,,
Systematic_Generation,,,AgS,,P-3m1,,,,9.804,,,,,BIN_000760,,,Binary_Chalcogenide,4.305,,AgS,Ag:S = 1:1,5.221,,,
Systematic_Generation,,,AgS2,,Fm-3m,,,,13.096,,,,,BIN_000761,,,Binary_Chalcogenide,5.388,,AgS2,Ag:S = 1:2,7.5,,,
Systematic_Generation,,,Ag2S3,,R-3m,,,,9.509,,,,,BIN_000762,,,Binary_Chalcogenide,4.673,,Ag2S3,Ag:S = 2:3,5.47,,,
Systematic_Generation,,,Ag3S4,,P63/mmc,,,,7.885,,,,,BIN_000763,,,Binary_Chalcogenide,4.666,,Ag3S4,Ag:S = 3:4,4.425,,,
Systematic_Generation,,,AgSe,,R-3m,,,,6.138,,,,,BIN_000764,,,Binary_Chalcogenide,5.46,,AgSe,Ag:Se = 1:1,7.996,,,
Systematic_Generation,,,AgSe2,,P-3m1,,,,6.8,,,,,BIN_000765,,,Binary_Chalcogenide,6.376,,AgSe2,Ag:Se = 1:2,3.792,,,
Systematic_Generation,,,Ag2Se3,,P-3m1,,,,8.948,,,,,BIN_000766,,,Binary_Chalcogenide,6.066,,Ag2Se3,Ag:Se = 2:3,3.937,,,
Systematic_Generation,,,Ag3Se4,,P63/mmc,,,,5.335,,,,,BIN_000767,,,Binary_Chalcogenide,4.556,,Ag3Se4,Ag:Se = 3:4,5.184,,,
Systematic_Generation,,,AgTe,,R-3m,,,,5.325,,,,,BIN_000768,,,Binary_Chalcogenide,4.945,,AgTe,Ag:Te = 1:1,7.604,,,
Systematic_Generation,,,AgTe2,,R-3m,,,,12.842,,,,,BIN_000769,,,Binary_Chalcogenide,7.408,,AgTe2,Ag:Te = 1:2,4.001,,,
Systematic_Generation,,,Ag2Te3,,P-3m1,,,,11.763,,,,,BIN_000770,,,Binary_Chalcogenide,7.668,,Ag2Te3,Ag:Te = 2:3,4.622,,,
Systematic_Generation,,,Ag3Te4,,R-3m,,,,10.553,,,,,BIN_000771,,,Binary_Chalcogenide,7.116,,Ag3Te4,Ag:Te = 3:4,6.597,,,
Systematic_Generation,,,CdS,,Fm-3m,,,,5.401,,,,,BIN_000772,,,Binary_Chalcogenide,7.911,,CdS,Cd:S = 1:1,7.937,,,
Systematic_Generation,,,CdS2,,R-3m,,,,19.516,,,,,BIN_000773,,,Binary_Chalcogenide,4.49,,CdS2,Cd:S = 1:2,6.114,,,
Systematic_Generation,,,Cd2S3,,R-3m,,,,6.362,,,,,BIN_000774,,,Binary_Chalcogenide,5.175,,Cd2S3,Cd:S = 2:3,6.113,,,
Systematic_Generation,,,Cd3S4,,P-3m1,,,,6.662,,,,,BIN_000775,,,Binary_Chalcogenide,7.654,,Cd3S4,Cd:S = 3:4,3.763,,,
Systematic_Generation,,,CdSe,,P-3m1,,,,10.39,,,,,BIN_000776,,,Binary_Chalcogenide,3.724,,CdSe,Cd:Se = 1:1,5.36,,,
Systematic_Generation,,,CdSe2,,P63/mmc,,,,7.828,,,,,BIN_000777,,,Binary_Chalcogenide,4.347,,CdSe2,Cd:Se = 1:2,5.74,,,
Systematic_Generation,,,Cd2Se3,,P-3m1,,,,8.841,,,,,BIN_000778,,,Binary_Chalcogenide,3.642,,Cd2Se3,Cd:Se = 2:3,4.059,,,
Systematic_Generation,,,Cd3Se4,,P-3m1,,,,12.15,,,,,BIN_000779,,,Binary_Chalcogenide,6.339,,Cd3Se4,Cd:Se = 3:4,4.879,,,
Systematic_Generation,,,CdTe,,R-3m,,,,6.427,,,,,BIN_000780,,,Binary_Chalcogenide,7.164,,CdTe,Cd:Te = 1:1,5.417,,,
Systematic_Generation,,,CdTe2,,R-3m,,,,11.809,,,,,BIN_000781,,,Binary_Chalcogenide,6.087,,CdTe2,Cd:Te = 1:2,5.446,,,
Systematic_Generation,,,Cd2Te3,,P-3m1,,,,17.094,,,,,BIN_000782,,,Binary_Chalcogenide,5.889,,Cd2Te3,Cd:Te = 2:3,5.052,,,
Systematic_Generation,,,Cd3Te4,,R-3m,,,,11.298,,,,,BIN_000783,,,Binary_Chalcogenide,5.483,,Cd3Te4,Cd:Te = 3:4,5.489,,,
Systematic_Generation,,,LiN,,Fm-3m,,,,7.855,,,,,BIN_000784,,,Binary_Pnictide,5.219,,LiN,Li:N = 1:1,3.409,,,
Systematic_Generation,,,Li3N,,P63/mmc,,,,4.521,,,,,BIN_000785,,,Binary_Pnictide,6.458,,Li3N,Li:N = 3:1,3.023,,,
Systematic_Generation,,,LiN2,,P63/mmc,,,,4.3,,,,,BIN_000786,,,Binary_Pnictide,4.707,,LiN2,Li:N = 1:2,4.936,,,
Systematic_Generation,,,Li3N4,,Fm-3m,,,,6.811,,,,,BIN_000787,,,Binary_Pnictide,4.089,,Li3N4,Li:N = 3:4,5.092,,,
Systematic_Generation,,,LiP,,P63/mmc,,,,4.441,,,,,BIN_000788,,,Binary_Pnictide,4.691,,LiP,Li:P = 1:1,6.225,,,
Systematic_Generation,,,Li3P,,Pm-3m,,,,6.576,,,,,BIN_000789,,,Binary_Pnictide,4.387,,Li3P,Li:P = 3:1,4.543,,,
Systematic_Generation,,,LiP2,,P63/mmc,,,,10.339,,,,,BIN_000790,,,Binary_Pnictide,4.281,,LiP2,Li:P = 1:2,5.188,,,
Systematic_Generation,,,Li3P4,,Fm-3m,,,,6.818,,,,,BIN_000791,,,Binary_Pnictide,6.358,,Li3P4,Li:P = 3:4,5.656,,,
Systematic_Generation,,,LiAs,,Pm-3m,,,,5.427,,,,,BIN_000792,,,Binary_Pnictide,5.469,,LiAs,Li:As = 1:1,3.679,,,
Systematic_Generation,,,Li3As,,P63/mmc,,,,8.869,,,,,BIN_000793,,,Binary_Pnictide,3.608,,Li3As,Li:As = 3:1,5.968,,,
Systematic_Generation,,,LiAs2,,Fm-3m,,,,5.221,,,,,BIN_000794,,,Binary_Pnictide,3.508,,LiAs2,Li:As = 1:2,5.946,,,
Systematic_Generation,,,Li3As4,,P63/mmc,,,,10.436,,,,,BIN_000795,,,Binary_Pnictide,5.593,,Li3As4,Li:As = 3:4,5.327,,,
Systematic_Generation,,,NaN,,P63/mmc,,,,10.411,,,,,BIN_000796,,,Binary_Pnictide,6.212,,NaN,Na:N = 1:1,3.426,,,
Systematic_Generation,,,Na3N,,Pm-3m,,,,5.655,,,,,BIN_000797,,,Binary_Pnictide,6.844,,Na3N,Na:N = 3:1,6.929,,,
Systematic_Generation,,,NaN2,,Pm-3m,,,,6.71,,,,,BIN_000798,,,Binary_Pnictide,4.581,,NaN2,Na:N = 1:2,5.806,,,
Systematic_Generation,,,Na3N4,,P63/mmc,,,,5.376,,,,,BIN_000799,,,Binary_Pnictide,3.784,,Na3N4,Na:N = 3:4,5.606,,,
Systematic_Generation,,,NaP,,P63/mmc,,,,9.606,,,,,BIN_000800,,,Binary_Pnictide,3.593,,NaP,Na:P = 1:1,4.418,,,
Systematic_Generation,,,Na3P,,P63/mmc,,,,10.982,,,,,BIN_000801,,,Binary_Pnictide,3.948,,Na3P,Na:P = 3:1,5.511,,,
Systematic_Generation,,,NaP2,,P63/mmc,,,,9.071,,,,,BIN_000802,,,Binary_Pnictide,5.822,,NaP2,Na:P = 1:2,6.997,,,
Systematic_Generation,,,Na3P4,,Fm-3m,,,,6.365,,,,,BIN_000803,,,Binary_Pnictide,6.704,,Na3P4,Na:P = 3:4,5.716,,,
Systematic_Generation,,,NaAs,,Fm-3m,,,,9.019,,,,,BIN_000804,,,Binary_Pnictide,6.747,,NaAs,Na:As = 1:1,6.667,,,
Systematic_Generation,,,Na3As,,Fm-3m,,,,4.404,,,,,BIN_000805,,,Binary_Pnictide,6.268,,Na3As,Na:As = 3:1,6.917,,,
Systematic_Generation,,,NaAs2,,Pm-3m,,,,11.548,,,,,BIN_000806,,,Binary_Pnictide,5.501,,NaAs2,Na:As = 1:2,6.984,,,
Systematic_Generation,,,Na3As4,,Fm-3m,,,,9.026,,,,,BIN_000807,,,Binary_Pnictide,3.684,,Na3As4,Na:As = 3:4,4.767,,,
Systematic_Generation,,,KN,,P63/mmc,,,,4.87,,,,,BIN_000808,,,Binary_Pnictide,5.032,,KN,K:N = 1:1,6.087,,,
Systematic_Generation,,,K3N,,Pm-3m,,,,9.636,,,,,BIN_000809,,,Binary_Pnictide,4.435,,K3N,K:N = 3:1,4.902,,,
Systematic_Generation,,,KN2,,P63/mmc,,,,10.247,,,,,BIN_000810,,,Binary_Pnictide,3.741,,KN2,K:N = 1:2,6.231,,,
Systematic_Generation,,,K3N4,,Fm-3m,,,,4.138,,,,,BIN_000811,,,Binary_Pnictide,5.196,,K3N4,K:N = 3:4,3.921,,,
Systematic_Generation,,,KP,,Pm-3m,,,,5.861,,,,,BIN_000812,,,Binary_Pnictide,4.538,,KP,K:P = 1:1,4.41,,,
Systematic_Generation,,,K3P,,Fm-3m,,,,11.203,,,,,BIN_000813,,,Binary_Pnictide,4.304,,K3P,K:P = 3:1,6.627,,,
Systematic_Generation,,,KP2,,Fm-3m,,,,9.027,,,,,BIN_000814,,,Binary_Pnictide,4.534,,KP2,K:P = 1:2,6.721,,,
Systematic_Generation,,,K3P4,,P63/mmc,,,,11.259,,,,,BIN_000815,,,Binary_Pnictide,4.687,,K3P4,K:P = 3:4,5.404,,,
Systematic_Generation,,,KAs,,Pm-3m,,,,4.646,,,,,BIN_000816,,,Binary_Pnictide,3.445,,KAs,K:As = 1:1,4.969,,,
Systematic_Generation,,,K3As,,Pm-3m,,,,11.163,,,,,BIN_000817,,,Binary_Pnictide,6.024,,K3As,K:As = 3:1,6.974,,,
Systematic_Generation,,,KAs2,,Pm-3m,,,,11.699,,,,,BIN_000818,,,Binary_Pnictide,3.721,,KAs2,K:As = 1:2,4.341,,,
Systematic_Generation,,,K3As4,,Fm-3m,,,,5.757,,,,,BIN_000819,,,Binary_Pnictide,3.126,,K3As4,K:As = 3:4,5.353,,,
Systematic_Generation,,,RbN,,Pm-3m,,,,6.244,,,,,BIN_000820,,,Binary_Pnictide,5.087,,RbN,Rb:N = 1:1,6.032,,,
Systematic_Generation,,,Rb3N,,Fm-3m,,,,10.608,,,,,BIN_000821,,,Binary_Pnictide,5.785,,Rb3N,Rb:N = 3:1,5.457,,,
Systematic_Generation,,,RbN2,,Fm-3m,,,,5.73,,,,,BIN_000822,,,Binary_Pnictide,4.143,,RbN2,Rb:N = 1:2,4.571,,,
Systematic_Generation,,,Rb3N4,,Pm-3m,,,,8.526,,,,,BIN_000823,,,Binary_Pnictide,4.665,,Rb3N4,Rb:N = 3:4,5.268,,,
Systematic_Generation,,,RbP,,Pm-3m,,,,5.271,,,,,BIN_000824,,,Binary_Pnictide,6.354,,RbP,Rb:P = 1:1,4.407,,,
Systematic_Generation,,,Rb3P,,Pm-3m,,,,7.719,,,,,BIN_000825,,,Binary_Pnictide,4.098,,Rb3P,Rb:P = 3:1,6.128,,,
Systematic_Generation,,,RbP2,,Fm-3m,,,,7.566,,,,,BIN_000826,,,Binary_Pnictide,3.122,,RbP2,Rb:P = 1:2,3.497,,,
Systematic_Generation,,,Rb3P4,,Fm-3m,,,,6.992,,,,,BIN_000827,,,Binary_Pnictide,4.843,,Rb3P4,Rb:P = 3:4,4.175,,,
Systematic_Generation,,,RbAs,,P63/mmc,,,,11.476,,,,,BIN_000828,,,Binary_Pnictide,5.526,,RbAs,Rb:As = 1:1,5.349,,,
Systematic_Generation,,,Rb3As,,P63/mmc,,,,5.506,,,,,BIN_000829,,,Binary_Pnictide,5.685,,Rb3As,Rb:As = 3:1,6.835,,,
Systematic_Generation,,,RbAs2,,Pm-3m,,,,10.33,,,,,BIN_000830,,,Binary_Pnictide,4.354,,RbAs2,Rb:As = 1:2,6.882,,,
Systematic_Generation,,,Rb3As4,,Fm-3m,,,,6.699,,,,,BIN_000831,,,Binary_Pnictide,3.84,,Rb3As4,Rb:As = 3:4,6.183,,,
Systematic_Generation,,,CsN,,Pm-3m,,,,7.618,,,,,BIN_000832,,,Binary_Pnictide,5.897,,CsN,Cs:N = 1:1,6.821,,,
Systematic_Generation,,,Cs3N,,Pm-3m,,,,10.111,,,,,BIN_000833,,,Binary_Pnictide,4.278,,Cs3N,Cs:N = 3:1,4.106,,,
Systematic_Generation,,,CsN2,,Pm-3m,,,,7.325,,,,,BIN_000834,,,Binary_Pnictide,4.664,,CsN2,Cs:N = 1:2,4.162,,,
Systematic_Generation,,,Cs3N4,,P63/mmc,,,,9.969,,,,,BIN_000835,,,Binary_Pnictide,6.111,,Cs3N4,Cs:N = 3:4,6.779,,,
Systematic_Generation,,,CsP,,P63/mmc,,,,5.629,,,,,BIN_000836,,,Binary_Pnictide,6.555,,CsP,Cs:P = 1:1,3.072,,,
Systematic_Generation,,,Cs3P,,Fm-3m,,,,8.539,,,,,BIN_000837,,,Binary_Pnictide,5.701,,Cs3P,Cs:P = 3:1,5.972,,,
Systematic_Generation,,,CsP2,,Fm-3m,,,,7.581,,,,,BIN_000838,,,Binary_Pnictide,5.599,,CsP2,Cs:P = 1:2,3.542,,,
Systematic_Generation,,,Cs3P4,,Fm-3m,,,,6.592,,,,,BIN_000839,,,Binary_Pnictide,6.565,,Cs3P4,Cs:P = 3:4,3.773,,,
Systematic_Generation,,,CsAs,,Fm-3m,,,,11.957,,,,,BIN_000840,,,Binary_Pnictide,3.652,,CsAs,Cs:As = 1:1,5.919,,,
Systematic_Generation,,,Cs3As,,Fm-3m,,,,4.407,,,,,BIN_000841,,,Binary_Pnictide,4.291,,Cs3As,Cs:As = 3:1,5.757,,,
Systematic_Generation,,,CsAs2,,Fm-3m,,,,9.615,,,,,BIN_000842,,,Binary_Pnictide,6.548,,CsAs2,Cs:As = 1:2,5.6,,,
Systematic_Generation,,,Cs3As4,,P63/mmc,,,,5.272,,,,,BIN_000843,,,Binary_Pnictide,4.486,,Cs3As4,Cs:As = 3:4,4.964,,,
Systematic_Generation,,,BeN,,P63/mmc,,,,7.797,,,,,BIN_000844,,,Binary_Pnictide,4.057,,BeN,Be:N = 1:1,4.039,,,
Systematic_Generation,,,Be3N,,P63/mmc,,,,9.585,,,,,BIN_000845,,,Binary_Pnictide,6.835,,Be3N,Be:N = 3:1,4.015,,,
Systematic_Generation,,,BeN2,,Fm-3m,,,,11.933,,,,,BIN_000846,,,Binary_Pnictide,3.699,,BeN2,Be:N = 1:2,6.659,,,
Systematic_Generation,,,Be3N4,,Fm-3m,,,,6.301,,,,,BIN_000847,,,Binary_Pnictide,6.063,,Be3N4,Be:N = 3:4,6.837,,,
Systematic_Generation,,,BeP,,P63/mmc,,,,9.002,,,,,BIN_000848,,,Binary_Pnictide,5.598,,BeP,Be:P = 1:1,3.234,,,
Systematic_Generation,,,Be3P,,Pm-3m,,,,6.674,,,,,BIN_000849,,,Binary_Pnictide,5.247,,Be3P,Be:P = 3:1,4.321,,,
Systematic_Generation,,,BeP2,,Fm-3m,,,,9.767,,,,,BIN_000850,,,Binary_Pnictide,3.489,,BeP2,Be:P = 1:2,5.786,,,
Systematic_Generation,,,Be3P4,,Fm-3m,,,,6.226,,,,,BIN_000851,,,Binary_Pnictide,4.454,,Be3P4,Be:P = 3:4,6.211,,,
Systematic_Generation,,,BeAs,,Fm-3m,,,,5.343,,,,,BIN_000852,,,Binary_Pnictide,3.876,,BeAs,Be:As = 1:1,6.884,,,
Systematic_Generation,,,Be3As,,Pm-3m,,,,11.558,,,,,BIN_000853,,,Binary_Pnictide,4.65,,Be3As,Be:As = 3:1,6.117,,,
Systematic_Generation,,,BeAs2,,Fm-3m,,,,4.765,,,,,BIN_000854,,,Binary_Pnictide,5.513,,BeAs2,Be:As = 1:2,4.079,,,
Systematic_Generation,,,Be3As4,,Fm-3m,,,,4.168,,,,,BIN_000855,,,Binary_Pnictide,3.379,,Be3As4,Be:As = 3:4,4.174,,,
Systematic_Generation,,,MgN,,P63/mmc,,,,4.658,,,,,BIN_000856,,,Binary_Pnictide,5.977,,MgN,Mg:N = 1:1,6.667,,,
Systematic_Generation,,,Mg3N,,Fm-3m,,,,10.39,,,,,BIN_000857,,,Binary_Pnictide,5.503,,Mg3N,Mg:N = 3:1,5.469,,,
Systematic_Generation,,,MgN2,,Fm-3m,,,,8.066,,,,,BIN_000858,,,Binary_Pnictide,5.013,,MgN2,Mg:N = 1:2,3.609,,,
Systematic_Generation,,,Mg3N4,,Fm-3m,,,,4.669,,,,,BIN_000859,,,Binary_Pnictide,3.301,,Mg3N4,Mg:N = 3:4,6.777,,,
Systematic_Generation,,,MgP,,Pm-3m,,,,4.133,,,,,BIN_000860,,,Binary_Pnictide,4.498,,MgP,Mg:P = 1:1,4.152,,,
Systematic_Generation,,,Mg3P,,Fm-3m,,,,9.103,,,,,BIN_000861,,,Binary_Pnictide,5.804,,Mg3P,Mg:P = 3:1,4.856,,,
Systematic_Generation,,,MgP2,,P63/mmc,,,,4.428,,,,,BIN_000862,,,Binary_Pnictide,5.436,,MgP2,Mg:P = 1:2,3.191,,,
Systematic_Generation,,,Mg3P4,,Fm-3m,,,,10.961,,,,,BIN_000863,,,Binary_Pnictide,4.855,,Mg3P4,Mg:P = 3:4,6.55,,,
Systematic_Generation,,,MgAs,,P63/mmc,,,,10.66,,,,,BIN_000864,,,Binary_Pnictide,6.229,,MgAs,Mg:As = 1:1,6.636,,,
Systematic_Generation,,,Mg3As,,Fm-3m,,,,9.843,,,,,BIN_000865,,,Binary_Pnictide,6.933,,Mg3As,Mg:As = 3:1,4.633,,,
Systematic_Generation,,,MgAs2,,Pm-3m,,,,8.482,,,,,BIN_000866,,,Binary_Pnictide,3.417,,MgAs2,Mg:As = 1:2,6.151,,,
Systematic_Generation,,,Mg3As4,,P63/mmc,,,,9.16,,,,,BIN_000867,,,Binary_Pnictide,5.302,,Mg3As4,Mg:As = 3:4,5.459,,,
Systematic_Generation,,,CaN,,P63/mmc,,,,9.436,,,,,BIN_000868,,,Binary_Pnictide,6.467,,CaN,Ca:N = 1:1,4.779,,,
Systematic_Generation,,,Ca3N,,Fm-3m,,,,4.691,,,,,BIN_000869,,,Binary_Pnictide,4.844,,Ca3N,Ca:N = 3:1,6.961,,,
Systematic_Generation,,,CaN2,,Pm-3m,,,,9.903,,,,,BIN_000870,,,Binary_Pnictide,3.34,,CaN2,Ca:N = 1:2,6.482,,,
Systematic_Generation,,,Ca3N4,,Pm-3m,,,,6.703,,,,,BIN_000871,,,Binary_Pnictide,4.749,,Ca3N4,Ca:N = 3:4,4.269,,,
Systematic_Generation,,,CaP,,Fm-3m,,,,9.308,,,,,BIN_000872,,,Binary_Pnictide,6.226,,CaP,Ca:P = 1:1,3.971,,,
Systematic_Generation,,,Ca3P,,Fm-3m,,,,9.644,,,,,BIN_000873,,,Binary_Pnictide,6.666,,Ca3P,Ca:P = 3:1,6.257,,,
Systematic_Generation,,,CaP2,,Fm-3m,,,,11.701,,,,,BIN_000874,,,Binary_Pnictide,4.402,,CaP2,Ca:P = 1:2,4.443,,,
Systematic_Generation,,,Ca3P4,,Fm-3m,,,,10.128,,,,,BIN_000875,,,Binary_Pnictide,6.073,,Ca3P4,Ca:P = 3:4,4.557,,,
Systematic_Generation,,,CaAs,,Pm-3m,,,,5.613,,,,,BIN_000876,,,Binary_Pnictide,5.131,,CaAs,Ca:As = 1:1,5.755,,,
Systematic_Generation,,,Ca3As,,Fm-3m,,,,8.298,,,,,BIN_000877,,,Binary_Pnictide,3.799,,Ca3As,Ca:As = 3:1,5.225,,,
Systematic_Generation,,,CaAs2,,Fm-3m,,,,8.282,,,,,BIN_000878,,,Binary_Pnictide,3.481,,CaAs2,Ca:As = 1:2,4.099,,,
Systematic_Generation,,,Ca3As4,,Pm-3m,,,,8.93,,,,,BIN_000879,,,Binary_Pnictide,6.694,,Ca3As4,Ca:As = 3:4,4.138,,,
Systematic_Generation,,,SrN,,P63/mmc,,,,6.011,,,,,BIN_000880,,,Binary_Pnictide,4.299,,SrN,Sr:N = 1:1,5.681,,,