source,n_elements,doping_concentration,name,termination,space_group,doping_level,volume_fraction,weight_percent,lattice_c,temperature,reinforcement,matrix,layers,material_id,molecular_weight,deposition_method,type,lattice_b,pdi,formula,composition,lattice_a,thickness_nm,dopant,substrate
Systematic_Generation,,5e+18,CdSe:In_5.0e+18,,Inherited,,,,,,,,,DOPED_005353,,,Doped_Semiconductor,,,CdSe_In,CdSe + In @ 5.0e+18 cm^-3,,,In,
Systematic_Generation,,1e+19,CdSe:In_1.0e+19,,Inherited,,,,,,,,,DOPED_005354,,,Doped_Semiconductor,,,CdSe_In,CdSe + In @ 1.0e+19 cm^-3,,,In,
Systematic_Generation,,5e+19,CdSe:In_5.0e+19,,Inherited,,,,,,,,,DOPED_005355,,,Doped_Semiconductor,,,CdSe_In,CdSe + In @ 5.0e+19 cm^-3,,,In,
Systematic_Generation,,1e+20,CdSe:In_1.0e+20,,Inherited,,,,,,,,,DOPED_005356,,,Doped_Semiconductor,,,CdSe_In,CdSe + In @ 1.0e+20 cm^-3,,,In,
Systematic_Generation,,1e+21,CdSe:In_1.0e+21,,Inherited,,,,,,,,,DOPED_005357,,,Doped_Semiconductor,,,CdSe_In,CdSe + In @ 1.0e+21 cm^-3,,,In,
Systematic_Generation,,1000000000000000.0,CdSe:Bi_1.0e+15,,Inherited,,,,,,,,,DOPED_005358,,,Doped_Semiconductor,,,CdSe_Bi,CdSe + Bi @ 1.0e+15 cm^-3,,,Bi,
Systematic_Generation,,5000000000000000.0,CdSe:Bi_5.0e+15,,Inherited,,,,,,,,,DOPED_005359,,,Doped_Semiconductor,,,CdSe_Bi,CdSe + Bi @ 5.0e+15 cm^-3,,,Bi,
Systematic_Generation,,1e+16,CdSe:Bi_1.0e+16,,Inherited,,,,,,,,,DOPED_005360,,,Doped_Semiconductor,,,CdSe_Bi,CdSe + Bi @ 1.0e+16 cm^-3,,,Bi,
Systematic_Generation,,5e+16,CdSe:Bi_5.0e+16,,Inherited,,,,,,,,,DOPED_005361,,,Doped_Semiconductor,,,CdSe_Bi,CdSe + Bi @ 5.0e+16 cm^-3,,,Bi,
Systematic_Generation,,1e+17,CdSe:Bi_1.0e+17,,Inherited,,,,,,,,,DOPED_005362,,,Doped_Semiconductor,,,CdSe_Bi,CdSe + Bi @ 1.0e+17 cm^-3,,,Bi,
Systematic_Generation,,5e+17,CdSe:Bi_5.0e+17,,Inherited,,,,,,,,,DOPED_005363,,,Doped_Semiconductor,,,CdSe_Bi,CdSe + Bi @ 5.0e+17 cm^-3,,,Bi,
Systematic_Generation,,1e+18,CdSe:Bi_1.0e+18,,Inherited,,,,,,,,,DOPED_005364,,,Doped_Semiconductor,,,CdSe_Bi,CdSe + Bi @ 1.0e+18 cm^-3,,,Bi,
Systematic_Generation,,5e+18,CdSe:Bi_5.0e+18,,Inherited,,,,,,,,,DOPED_005365,,,Doped_Semiconductor,,,CdSe_Bi,CdSe + Bi @ 5.0e+18 cm^-3,,,Bi,
Systematic_Generation,,1e+19,CdSe:Bi_1.0e+19,,Inherited,,,,,,,,,DOPED_005366,,,Doped_Semiconductor,,,CdSe_Bi,CdSe + Bi @ 1.0e+19 cm^-3,,,Bi,
Systematic_Generation,,5e+19,CdSe:Bi_5.0e+19,,Inherited,,,,,,,,,DOPED_005367,,,Doped_Semiconductor,,,CdSe_Bi,CdSe + Bi @ 5.0e+19 cm^-3,,,Bi,
Systematic_Generation,,1e+20,CdSe:Bi_1.0e+20,,Inherited,,,,,,,,,DOPED_005368,,,Doped_Semiconductor,,,CdSe_Bi,CdSe + Bi @ 1.0e+20 cm^-3,,,Bi,
Systematic_Generation,,1e+21,CdSe:Bi_1.0e+21,,Inherited,,,,,,,,,DOPED_005369,,,Doped_Semiconductor,,,CdSe_Bi,CdSe + Bi @ 1.0e+21 cm^-3,,,Bi,
Systematic_Generation,,1000000000000000.0,CdSe:Li_1.0e+15,,Inherited,,,,,,,,,DOPED_005370,,,Doped_Semiconductor,,,CdSe_Li,CdSe + Li @ 1.0e+15 cm^-3,,,Li,
Systematic_Generation,,5000000000000000.0,CdSe:Li_5.0e+15,,Inherited,,,,,,,,,DOPED_005371,,,Doped_Semiconductor,,,CdSe_Li,CdSe + Li @ 5.0e+15 cm^-3,,,Li,
Systematic_Generation,,1e+16,CdSe:Li_1.0e+16,,Inherited,,,,,,,,,DOPED_005372,,,Doped_Semiconductor,,,CdSe_Li,CdSe + Li @ 1.0e+16 cm^-3,,,Li,
Systematic_Generation,,5e+16,CdSe:Li_5.0e+16,,Inherited,,,,,,,,,DOPED_005373,,,Doped_Semiconductor,,,CdSe_Li,CdSe + Li @ 5.0e+16 cm^-3,,,Li,
Systematic_Generation,,1e+17,CdSe:Li_1.0e+17,,Inherited,,,,,,,,,DOPED_005374,,,Doped_Semiconductor,,,CdSe_Li,CdSe + Li @ 1.0e+17 cm^-3,,,Li,
Systematic_Generation,,5e+17,CdSe:Li_5.0e+17,,Inherited,,,,,,,,,DOPED_005375,,,Doped_Semiconductor,,,CdSe_Li,CdSe + Li @ 5.0e+17 cm^-3,,,Li,
Systematic_Generation,,1e+18,CdSe:Li_1.0e+18,,Inherited,,,,,,,,,DOPED_005376,,,Doped_Semiconductor,,,CdSe_Li,CdSe + Li @ 1.0e+18 cm^-3,,,Li,
Systematic_Generation,,5e+18,CdSe:Li_5.0e+18,,Inherited,,,,,,,,,DOPED_005377,,,Doped_Semiconductor,,,CdSe_Li,CdSe + Li @ 5.0e+18 cm^-3,,,Li,
Systematic_Generation,,1e+19,CdSe:Li_1.0e+19,,Inherited,,,,,,,,,DOPED_005378,,,Doped_Semiconductor,,,CdSe_Li,CdSe + Li @ 1.0e+19 cm^-3,,,Li,
Systematic_Generation,,5e+19,CdSe:Li_5.0e+19,,Inherited,,,,,,,,,DOPED_005379,,,Doped_Semiconductor,,,CdSe_Li,CdSe + Li @ 5.0e+19 cm^-3,,,Li,
Systematic_Generation,,1e+20,CdSe:Li_1.0e+20,,Inherited,,,,,,,,,DOPED_005380,,,Doped_Semiconductor,,,CdSe_Li,CdSe + Li @ 1.0e+20 cm^-3,,,Li,
Systematic_Generation,,1e+21,CdSe:Li_1.0e+21,,Inherited,,,,,,,,,DOPED_005381,,,Doped_Semiconductor,,,CdSe_Li,CdSe + Li @ 1.0e+21 cm^-3,,,Li,
Systematic_Generation,,1000000000000000.0,CdSe:S_1.0e+15,,Inherited,,,,,,,,,DOPED_005382,,,Doped_Semiconductor,,,CdSe_S,CdSe + S @ 1.0e+15 cm^-3,,,S,
Systematic_Generation,,5000000000000000.0,CdSe:S_5.0e+15,,Inherited,,,,,,,,,DOPED_005383,,,Doped_Semiconductor,,,CdSe_S,CdSe + S @ 5.0e+15 cm^-3,,,S,
Systematic_Generation,,1e+16,CdSe:S_1.0e+16,,Inherited,,,,,,,,,DOPED_005384,,,Doped_Semiconductor,,,CdSe_S,CdSe + S @ 1.0e+16 cm^-3,,,S,
Systematic_Generation,,5e+16,CdSe:S_5.0e+16,,Inherited,,,,,,,,,DOPED_005385,,,Doped_Semiconductor,,,CdSe_S,CdSe + S @ 5.0e+16 cm^-3,,,S,
Systematic_Generation,,1e+17,CdSe:S_1.0e+17,,Inherited,,,,,,,,,DOPED_005386,,,Doped_Semiconductor,,,CdSe_S,CdSe + S @ 1.0e+17 cm^-3,,,S,
Systematic_Generation,,5e+17,CdSe:S_5.0e+17,,Inherited,,,,,,,,,DOPED_005387,,,Doped_Semiconductor,,,CdSe_S,CdSe + S @ 5.0e+17 cm^-3,,,S,
Systematic_Generation,,1e+18,CdSe:S_1.0e+18,,Inherited,,,,,,,,,DOPED_005388,,,Doped_Semiconductor,,,CdSe_S,CdSe + S @ 1.0e+18 cm^-3,,,S,
Systematic_Generation,,5e+18,CdSe:S_5.0e+18,,Inherited,,,,,,,,,DOPED_005389,,,Doped_Semiconductor,,,CdSe_S,CdSe + S @ 5.0e+18 cm^-3,,,S,
Systematic_Generation,,1e+19,CdSe:S_1.0e+19,,Inherited,,,,,,,,,DOPED_005390,,,Doped_Semiconductor,,,CdSe_S,CdSe + S @ 1.0e+19 cm^-3,,,S,
Systematic_Generation,,5e+19,CdSe:S_5.0e+19,,Inherited,,,,,,,,,DOPED_005391,,,Doped_Semiconductor,,,CdSe_S,CdSe + S @ 5.0e+19 cm^-3,,,S,
Systematic_Generation,,1e+20,CdSe:S_1.0e+20,,Inherited,,,,,,,,,DOPED_005392,,,Doped_Semiconductor,,,CdSe_S,CdSe + S @ 1.0e+20 cm^-3,,,S,
Systematic_Generation,,1e+21,CdSe:S_1.0e+21,,Inherited,,,,,,,,,DOPED_005393,,,Doped_Semiconductor,,,CdSe_S,CdSe + S @ 1.0e+21 cm^-3,,,S,
Systematic_Generation,,1000000000000000.0,CdSe:Se_1.0e+15,,Inherited,,,,,,,,,DOPED_005394,,,Doped_Semiconductor,,,CdSe_Se,CdSe + Se @ 1.0e+15 cm^-3,,,Se,
Systematic_Generation,,5000000000000000.0,CdSe:Se_5.0e+15,,Inherited,,,,,,,,,DOPED_005395,,,Doped_Semiconductor,,,CdSe_Se,CdSe + Se @ 5.0e+15 cm^-3,,,Se,
Systematic_Generation,,1e+16,CdSe:Se_1.0e+16,,Inherited,,,,,,,,,DOPED_005396,,,Doped_Semiconductor,,,CdSe_Se,CdSe + Se @ 1.0e+16 cm^-3,,,Se,
Systematic_Generation,,5e+16,CdSe:Se_5.0e+16,,Inherited,,,,,,,,,DOPED_005397,,,Doped_Semiconductor,,,CdSe_Se,CdSe + Se @ 5.0e+16 cm^-3,,,Se,
Systematic_Generation,,1e+17,CdSe:Se_1.0e+17,,Inherited,,,,,,,,,DOPED_005398,,,Doped_Semiconductor,,,CdSe_Se,CdSe + Se @ 1.0e+17 cm^-3,,,Se,
Systematic_Generation,,5e+17,CdSe:Se_5.0e+17,,Inherited,,,,,,,,,DOPED_005399,,,Doped_Semiconductor,,,CdSe_Se,CdSe + Se @ 5.0e+17 cm^-3,,,Se,
Systematic_Generation,,1e+18,CdSe:Se_1.0e+18,,Inherited,,,,,,,,,DOPED_005400,,,Doped_Semiconductor,,,CdSe_Se,CdSe + Se @ 1.0e+18 cm^-3,,,Se,
Systematic_Generation,,5e+18,CdSe:Se_5.0e+18,,Inherited,,,,,,,,,DOPED_005401,,,Doped_Semiconductor,,,CdSe_Se,CdSe + Se @ 5.0e+18 cm^-3,,,Se,
Systematic_Generation,,1e+19,CdSe:Se_1.0e+19,,Inherited,,,,,,,,,DOPED_005402,,,Doped_Semiconductor,,,CdSe_Se,CdSe + Se @ 1.0e+19 cm^-3,,,Se,
Systematic_Generation,,5e+19,CdSe:Se_5.0e+19,,Inherited,,,,,,,,,DOPED_005403,,,Doped_Semiconductor,,,CdSe_Se,CdSe + Se @ 5.0e+19 cm^-3,,,Se,
Systematic_Generation,,1e+20,CdSe:Se_1.0e+20,,Inherited,,,,,,,,,DOPED_005404,,,Doped_Semiconductor,,,CdSe_Se,CdSe + Se @ 1.0e+20 cm^-3,,,Se,
Systematic_Generation,,1e+21,CdSe:Se_1.0e+21,,Inherited,,,,,,,,,DOPED_005405,,,Doped_Semiconductor,,,CdSe_Se,CdSe + Se @ 1.0e+21 cm^-3,,,Se,
Systematic_Generation,,1000000000000000.0,CdSe:Te_1.0e+15,,Inherited,,,,,,,,,DOPED_005406,,,Doped_Semiconductor,,,CdSe_Te,CdSe + Te @ 1.0e+15 cm^-3,,,Te,
Systematic_Generation,,5000000000000000.0,CdSe:Te_5.0e+15,,Inherited,,,,,,,,,DOPED_005407,,,Doped_Semiconductor,,,CdSe_Te,CdSe + Te @ 5.0e+15 cm^-3,,,Te,
Systematic_Generation,,1e+16,CdSe:Te_1.0e+16,,Inherited,,,,,,,,,DOPED_005408,,,Doped_Semiconductor,,,CdSe_Te,CdSe + Te @ 1.0e+16 cm^-3,,,Te,
Systematic_Generation,,5e+16,CdSe:Te_5.0e+16,,Inherited,,,,,,,,,DOPED_005409,,,Doped_Semiconductor,,,CdSe_Te,CdSe + Te @ 5.0e+16 cm^-3,,,Te,
Systematic_Generation,,1e+17,CdSe:Te_1.0e+17,,Inherited,,,,,,,,,DOPED_005410,,,Doped_Semiconductor,,,CdSe_Te,CdSe + Te @ 1.0e+17 cm^-3,,,Te,
Systematic_Generation,,5e+17,CdSe:Te_5.0e+17,,Inherited,,,,,,,,,DOPED_005411,,,Doped_Semiconductor,,,CdSe_Te,CdSe + Te @ 5.0e+17 cm^-3,,,Te,
Systematic_Generation,,1e+18,CdSe:Te_1.0e+18,,Inherited,,,,,,,,,DOPED_005412,,,Doped_Semiconductor,,,CdSe_Te,CdSe + Te @ 1.0e+18 cm^-3,,,Te,
Systematic_Generation,,5e+18,CdSe:Te_5.0e+18,,Inherited,,,,,,,,,DOPED_005413,,,Doped_Semiconductor,,,CdSe_Te,CdSe + Te @ 5.0e+18 cm^-3,,,Te,
Systematic_Generation,,1e+19,CdSe:Te_1.0e+19,,Inherited,,,,,,,,,DOPED_005414,,,Doped_Semiconductor,,,CdSe_Te,CdSe + Te @ 1.0e+19 cm^-3,,,Te,
Systematic_Generation,,5e+19,CdSe:Te_5.0e+19,,Inherited,,,,,,,,,DOPED_005415,,,Doped_Semiconductor,,,CdSe_Te,CdSe + Te @ 5.0e+19 cm^-3,,,Te,
Systematic_Generation,,1e+20,CdSe:Te_1.0e+20,,Inherited,,,,,,,,,DOPED_005416,,,Doped_Semiconductor,,,CdSe_Te,CdSe + Te @ 1.0e+20 cm^-3,,,Te,
Systematic_Generation,,1e+21,CdSe:Te_1.0e+21,,Inherited,,,,,,,,,DOPED_005417,,,Doped_Semiconductor,,,CdSe_Te,CdSe + Te @ 1.0e+21 cm^-3,,,Te,
Systematic_Generation,,1000000000000000.0,CdTe:B_1.0e+15,,Inherited,,,,,,,,,DOPED_005418,,,Doped_Semiconductor,,,CdTe_B,CdTe + B @ 1.0e+15 cm^-3,,,B,
Systematic_Generation,,5000000000000000.0,CdTe:B_5.0e+15,,Inherited,,,,,,,,,DOPED_005419,,,Doped_Semiconductor,,,CdTe_B,CdTe + B @ 5.0e+15 cm^-3,,,B,
Systematic_Generation,,1e+16,CdTe:B_1.0e+16,,Inherited,,,,,,,,,DOPED_005420,,,Doped_Semiconductor,,,CdTe_B,CdTe + B @ 1.0e+16 cm^-3,,,B,
Systematic_Generation,,5e+16,CdTe:B_5.0e+16,,Inherited,,,,,,,,,DOPED_005421,,,Doped_Semiconductor,,,CdTe_B,CdTe + B @ 5.0e+16 cm^-3,,,B,
Systematic_Generation,,1e+17,CdTe:B_1.0e+17,,Inherited,,,,,,,,,DOPED_005422,,,Doped_Semiconductor,,,CdTe_B,CdTe + B @ 1.0e+17 cm^-3,,,B,
Systematic_Generation,,5e+17,CdTe:B_5.0e+17,,Inherited,,,,,,,,,DOPED_005423,,,Doped_Semiconductor,,,CdTe_B,CdTe + B @ 5.0e+17 cm^-3,,,B,
Systematic_Generation,,1e+18,CdTe:B_1.0e+18,,Inherited,,,,,,,,,DOPED_005424,,,Doped_Semiconductor,,,CdTe_B,CdTe + B @ 1.0e+18 cm^-3,,,B,
Systematic_Generation,,5e+18,CdTe:B_5.0e+18,,Inherited,,,,,,,,,DOPED_005425,,,Doped_Semiconductor,,,CdTe_B,CdTe + B @ 5.0e+18 cm^-3,,,B,
Systematic_Generation,,1e+19,CdTe:B_1.0e+19,,Inherited,,,,,,,,,DOPED_005426,,,Doped_Semiconductor,,,CdTe_B,CdTe + B @ 1.0e+19 cm^-3,,,B,
Systematic_Generation,,5e+19,CdTe:B_5.0e+19,,Inherited,,,,,,,,,DOPED_005427,,,Doped_Semiconductor,,,CdTe_B,CdTe + B @ 5.0e+19 cm^-3,,,B,
Systematic_Generation,,1e+20,CdTe:B_1.0e+20,,Inherited,,,,,,,,,DOPED_005428,,,Doped_Semiconductor,,,CdTe_B,CdTe + B @ 1.0e+20 cm^-3,,,B,
Systematic_Generation,,1e+21,CdTe:B_1.0e+21,,Inherited,,,,,,,,,DOPED_005429,,,Doped_Semiconductor,,,CdTe_B,CdTe + B @ 1.0e+21 cm^-3,,,B,
Systematic_Generation,,1000000000000000.0,CdTe:P_1.0e+15,,Inherited,,,,,,,,,DOPED_005430,,,Doped_Semiconductor,,,CdTe_P,CdTe + P @ 1.0e+15 cm^-3,,,P,
Systematic_Generation,,5000000000000000.0,CdTe:P_5.0e+15,,Inherited,,,,,,,,,DOPED_005431,,,Doped_Semiconductor,,,CdTe_P,CdTe + P @ 5.0e+15 cm^-3,,,P,
Systematic_Generation,,1e+16,CdTe:P_1.0e+16,,Inherited,,,,,,,,,DOPED_005432,,,Doped_Semiconductor,,,CdTe_P,CdTe + P @ 1.0e+16 cm^-3,,,P,
Systematic_Generation,,5e+16,CdTe:P_5.0e+16,,Inherited,,,,,,,,,DOPED_005433,,,Doped_Semiconductor,,,CdTe_P,CdTe + P @ 5.0e+16 cm^-3,,,P,
Systematic_Generation,,1e+17,CdTe:P_1.0e+17,,Inherited,,,,,,,,,DOPED_005434,,,Doped_Semiconductor,,,CdTe_P,CdTe + P @ 1.0e+17 cm^-3,,,P,
Systematic_Generation,,5e+17,CdTe:P_5.0e+17,,Inherited,,,,,,,,,DOPED_005435,,,Doped_Semiconductor,,,CdTe_P,CdTe + P @ 5.0e+17 cm^-3,,,P,
Systematic_Generation,,1e+18,CdTe:P_1.0e+18,,Inherited,,,,,,,,,DOPED_005436,,,Doped_Semiconductor,,,CdTe_P,CdTe + P @ 1.0e+18 cm^-3,,,P,
Systematic_Generation,,5e+18,CdTe:P_5.0e+18,,Inherited,,,,,,,,,DOPED_005437,,,Doped_Semiconductor,,,CdTe_P,CdTe + P @ 5.0e+18 cm^-3,,,P,
Systematic_Generation,,1e+19,CdTe:P_1.0e+19,,Inherited,,,,,,,,,DOPED_005438,,,Doped_Semiconductor,,,CdTe_P,CdTe + P @ 1.0e+19 cm^-3,,,P,
Systematic_Generation,,5e+19,CdTe:P_5.0e+19,,Inherited,,,,,,,,,DOPED_005439,,,Doped_Semiconductor,,,CdTe_P,CdTe + P @ 5.0e+19 cm^-3,,,P,
Systematic_Generation,,1e+20,CdTe:P_1.0e+20,,Inherited,,,,,,,,,DOPED_005440,,,Doped_Semiconductor,,,CdTe_P,CdTe + P @ 1.0e+20 cm^-3,,,P,
Systematic_Generation,,1e+21,CdTe:P_1.0e+21,,Inherited,,,,,,,,,DOPED_005441,,,Doped_Semiconductor,,,CdTe_P,CdTe + P @ 1.0e+21 cm^-3,,,P,
Systematic_Generation,,1000000000000000.0,CdTe:As_1.0e+15,,Inherited,,,,,,,,,DOPED_005442,,,Doped_Semiconductor,,,CdTe_As,CdTe + As @ 1.0e+15 cm^-3,,,As,
Systematic_Generation,,5000000000000000.0,CdTe:As_5.0e+15,,Inherited,,,,,,,,,DOPED_005443,,,Doped_Semiconductor,,,CdTe_As,CdTe + As @ 5.0e+15 cm^-3,,,As,
Systematic_Generation,,1e+16,CdTe:As_1.0e+16,,Inherited,,,,,,,,,DOPED_005444,,,Doped_Semiconductor,,,CdTe_As,CdTe + As @ 1.0e+16 cm^-3,,,As,
Systematic_Generation,,5e+16,CdTe:As_5.0e+16,,Inherited,,,,,,,,,DOPED_005445,,,Doped_Semiconductor,,,CdTe_As,CdTe + As @ 5.0e+16 cm^-3,,,As,
Systematic_Generation,,1e+17,CdTe:As_1.0e+17,,Inherited,,,,,,,,,DOPED_005446,,,Doped_Semiconductor,,,CdTe_As,CdTe + As @ 1.0e+17 cm^-3,,,As,
Systematic_Generation,,5e+17,CdTe:As_5.0e+17,,Inherited,,,,,,,,,DOPED_005447,,,Doped_Semiconductor,,,CdTe_As,CdTe + As @ 5.0e+17 cm^-3,,,As,
Systematic_Generation,,1e+18,CdTe:As_1.0e+18,,Inherited,,,,,,,,,DOPED_005448,,,Doped_Semiconductor,,,CdTe_As,CdTe + As @ 1.0e+18 cm^-3,,,As,
Systematic_Generation,,5e+18,CdTe:As_5.0e+18,,Inherited,,,,,,,,,DOPED_005449,,,Doped_Semiconductor,,,CdTe_As,CdTe + As @ 5.0e+18 cm^-3,,,As,
Systematic_Generation,,1e+19,CdTe:As_1.0e+19,,Inherited,,,,,,,,,DOPED_005450,,,Doped_Semiconductor,,,CdTe_As,CdTe + As @ 1.0e+19 cm^-3,,,As,
Systematic_Generation,,5e+19,CdTe:As_5.0e+19,,Inherited,,,,,,,,,DOPED_005451,,,Doped_Semiconductor,,,CdTe_As,CdTe + As @ 5.0e+19 cm^-3,,,As,
Systematic_Generation,,1e+20,CdTe:As_1.0e+20,,Inherited,,,,,,,,,DOPED_005452,,,Doped_Semiconductor,,,CdTe_As,CdTe + As @ 1.0e+20 cm^-3,,,As,
Systematic_Generation,,1e+21,CdTe:As_1.0e+21,,Inherited,,,,,,,,,DOPED_005453,,,Doped_Semiconductor,,,CdTe_As,CdTe + As @ 1.0e+21 cm^-3,,,As,
Systematic_Generation,,1000000000000000.0,CdTe:Sb_1.0e+15,,Inherited,,,,,,,,,DOPED_005454,,,Doped_Semiconductor,,,CdTe_Sb,CdTe + Sb @ 1.0e+15 cm^-3,,,Sb,
Systematic_Generation,,5000000000000000.0,CdTe:Sb_5.0e+15,,Inherited,,,,,,,,,DOPED_005455,,,Doped_Semiconductor,,,CdTe_Sb,CdTe + Sb @ 5.0e+15 cm^-3,,,Sb,
Systematic_Generation,,1e+16,CdTe:Sb_1.0e+16,,Inherited,,,,,,,,,DOPED_005456,,,Doped_Semiconductor,,,CdTe_Sb,CdTe + Sb @ 1.0e+16 cm^-3,,,Sb,
Systematic_Generation,,5e+16,CdTe:Sb_5.0e+16,,Inherited,,,,,,,,,DOPED_005457,,,Doped_Semiconductor,,,CdTe_Sb,CdTe + Sb @ 5.0e+16 cm^-3,,,Sb,
Systematic_Generation,,1e+17,CdTe:Sb_1.0e+17,,Inherited,,,,,,,,,DOPED_005458,,,Doped_Semiconductor,,,CdTe_Sb,CdTe + Sb @ 1.0e+17 cm^-3,,,Sb,
Systematic_Generation,,5e+17,CdTe:Sb_5.0e+17,,Inherited,,,,,,,,,DOPED_005459,,,Doped_Semiconductor,,,CdTe_Sb,CdTe + Sb @ 5.0e+17 cm^-3,,,Sb,
Systematic_Generation,,1e+18,CdTe:Sb_1.0e+18,,Inherited,,,,,,,,,DOPED_005460,,,Doped_Semiconductor,,,CdTe_Sb,CdTe + Sb @ 1.0e+18 cm^-3,,,Sb,
Systematic_Generation,,5e+18,CdTe:Sb_5.0e+18,,Inherited,,,,,,,,,DOPED_005461,,,Doped_Semiconductor,,,CdTe_Sb,CdTe + Sb @ 5.0e+18 cm^-3,,,Sb,
Systematic_Generation,,1e+19,CdTe:Sb_1.0e+19,,Inherited,,,,,,,,,DOPED_005462,,,Doped_Semiconductor,,,CdTe_Sb,CdTe + Sb @ 1.0e+19 cm^-3,,,Sb,
Systematic_Generation,,5e+19,CdTe:Sb_5.0e+19,,Inherited,,,,,,,,,DOPED_005463,,,Doped_Semiconductor,,,CdTe_Sb,CdTe + Sb @ 5.0e+19 cm^-3,,,Sb,
Systematic_Generation,,1e+20,CdTe:Sb_1.0e+20,,Inherited,,,,,,,,,DOPED_005464,,,Doped_Semiconductor,,,CdTe_Sb,CdTe + Sb @ 1.0e+20 cm^-3,,,Sb,
Systematic_Generation,,1e+21,CdTe:Sb_1.0e+21,,Inherited,,,,,,,,,DOPED_005465,,,Doped_Semiconductor,,,CdTe_Sb,CdTe + Sb @ 1.0e+21 cm^-3,,,Sb,
Systematic_Generation,,1000000000000000.0,CdTe:N_1.0e+15,,Inherited,,,,,,,,,DOPED_005466,,,Doped_Semiconductor,,,CdTe_N,CdTe + N @ 1.0e+15 cm^-3,,,N,
Systematic_Generation,,5000000000000000.0,CdTe:N_5.0e+15,,Inherited,,,,,,,,,DOPED_005467,,,Doped_Semiconductor,,,CdTe_N,CdTe + N @ 5.0e+15 cm^-3,,,N,
Systematic_Generation,,1e+16,CdTe:N_1.0e+16,,Inherited,,,,,,,,,DOPED_005468,,,Doped_Semiconductor,,,CdTe_N,CdTe + N @ 1.0e+16 cm^-3,,,N,
Systematic_Generation,,5e+16,CdTe:N_5.0e+16,,Inherited,,,,,,,,,DOPED_005469,,,Doped_Semiconductor,,,CdTe_N,CdTe + N @ 5.0e+16 cm^-3,,,N,
Systematic_Generation,,1e+17,CdTe:N_1.0e+17,,Inherited,,,,,,,,,DOPED_005470,,,Doped_Semiconductor,,,CdTe_N,CdTe + N @ 1.0e+17 cm^-3,,,N,
Systematic_Generation,,5e+17,CdTe:N_5.0e+17,,Inherited,,,,,,,,,DOPED_005471,,,Doped_Semiconductor,,,CdTe_N,CdTe + N @ 5.0e+17 cm^-3,,,N,
Systematic_Generation,,1e+18,CdTe:N_1.0e+18,,Inherited,,,,,,,,,DOPED_005472,,,Doped_Semiconductor,,,CdTe_N,CdTe + N @ 1.0e+18 cm^-3,,,N,
Systematic_Generation,,5e+18,CdTe:N_5.0e+18,,Inherited,,,,,,,,,DOPED_005473,,,Doped_Semiconductor,,,CdTe_N,CdTe + N @ 5.0e+18 cm^-3,,,N,
Systematic_Generation,,1e+19,CdTe:N_1.0e+19,,Inherited,,,,,,,,,DOPED_005474,,,Doped_Semiconductor,,,CdTe_N,CdTe + N @ 1.0e+19 cm^-3,,,N,
Systematic_Generation,,5e+19,CdTe:N_5.0e+19,,Inherited,,,,,,,,,DOPED_005475,,,Doped_Semiconductor,,,CdTe_N,CdTe + N @ 5.0e+19 cm^-3,,,N,
Systematic_Generation,,1e+20,CdTe:N_1.0e+20,,Inherited,,,,,,,,,DOPED_005476,,,Doped_Semiconductor,,,CdTe_N,CdTe + N @ 1.0e+20 cm^-3,,,N,
Systematic_Generation,,1e+21,CdTe:N_1.0e+21,,Inherited,,,,,,,,,DOPED_005477,,,Doped_Semiconductor,,,CdTe_N,CdTe + N @ 1.0e+21 cm^-3,,,N,
Systematic_Generation,,1000000000000000.0,CdTe:Al_1.0e+15,,Inherited,,,,,,,,,DOPED_005478,,,Doped_Semiconductor,,,CdTe_Al,CdTe + Al @ 1.0e+15 cm^-3,,,Al,
Systematic_Generation,,5000000000000000.0,CdTe:Al_5.0e+15,,Inherited,,,,,,,,,DOPED_005479,,,Doped_Semiconductor,,,CdTe_Al,CdTe + Al @ 5.0e+15 cm^-3,,,Al,
Systematic_Generation,,1e+16,CdTe:Al_1.0e+16,,Inherited,,,,,,,,,DOPED_005480,,,Doped_Semiconductor,,,CdTe_Al,CdTe + Al @ 1.0e+16 cm^-3,,,Al,
Systematic_Generation,,5e+16,CdTe:Al_5.0e+16,,Inherited,,,,,,,,,DOPED_005481,,,Doped_Semiconductor,,,CdTe_Al,CdTe + Al @ 5.0e+16 cm^-3,,,Al,
Systematic_Generation,,1e+17,CdTe:Al_1.0e+17,,Inherited,,,,,,,,,DOPED_005482,,,Doped_Semiconductor,,,CdTe_Al,CdTe + Al @ 1.0e+17 cm^-3,,,Al,
Systematic_Generation,,5e+17,CdTe:Al_5.0e+17,,Inherited,,,,,,,,,DOPED_005483,,,Doped_Semiconductor,,,CdTe_Al,CdTe + Al @ 5.0e+17 cm^-3,,,Al,
Systematic_Generation,,1e+18,CdTe:Al_1.0e+18,,Inherited,,,,,,,,,DOPED_005484,,,Doped_Semiconductor,,,CdTe_Al,CdTe + Al @ 1.0e+18 cm^-3,,,Al,
Systematic_Generation,,5e+18,CdTe:Al_5.0e+18,,Inherited,,,,,,,,,DOPED_005485,,,Doped_Semiconductor,,,CdTe_Al,CdTe + Al @ 5.0e+18 cm^-3,,,Al,
Systematic_Generation,,1e+19,CdTe:Al_1.0e+19,,Inherited,,,,,,,,,DOPED_005486,,,Doped_Semiconductor,,,CdTe_Al,CdTe + Al @ 1.0e+19 cm^-3,,,Al,
Systematic_Generation,,5e+19,CdTe:Al_5.0e+19,,Inherited,,,,,,,,,DOPED_005487,,,Doped_Semiconductor,,,CdTe_Al,CdTe + Al @ 5.0e+19 cm^-3,,,Al,
Systematic_Generation,,1e+20,CdTe:Al_1.0e+20,,Inherited,,,,,,,,,DOPED_005488,,,Doped_Semiconductor,,,CdTe_Al,CdTe + Al @ 1.0e+20 cm^-3,,,Al,
Systematic_Generation,,1e+21,CdTe:Al_1.0e+21,,Inherited,,,,,,,,,DOPED_005489,,,Doped_Semiconductor,,,CdTe_Al,CdTe + Al @ 1.0e+21 cm^-3,,,Al,
Systematic_Generation,,1000000000000000.0,CdTe:Ga_1.0e+15,,Inherited,,,,,,,,,DOPED_005490,,,Doped_Semiconductor,,,CdTe_Ga,CdTe + Ga @ 1.0e+15 cm^-3,,,Ga,