source,n_elements,doping_concentration,name,termination,space_group,doping_level,volume_fraction,weight_percent,lattice_c,temperature,reinforcement,matrix,layers,material_id,molecular_weight,deposition_method,type,lattice_b,pdi,formula,composition,lattice_a,thickness_nm,dopant,substrate
Systematic_Generation,,5000000000000000.0,CdTe:Ga_5.0e+15,,Inherited,,,,,,,,,DOPED_005491,,,Doped_Semiconductor,,,CdTe_Ga,CdTe + Ga @ 5.0e+15 cm^-3,,,Ga,
Systematic_Generation,,1e+16,CdTe:Ga_1.0e+16,,Inherited,,,,,,,,,DOPED_005492,,,Doped_Semiconductor,,,CdTe_Ga,CdTe + Ga @ 1.0e+16 cm^-3,,,Ga,
Systematic_Generation,,5e+16,CdTe:Ga_5.0e+16,,Inherited,,,,,,,,,DOPED_005493,,,Doped_Semiconductor,,,CdTe_Ga,CdTe + Ga @ 5.0e+16 cm^-3,,,Ga,
Systematic_Generation,,1e+17,CdTe:Ga_1.0e+17,,Inherited,,,,,,,,,DOPED_005494,,,Doped_Semiconductor,,,CdTe_Ga,CdTe + Ga @ 1.0e+17 cm^-3,,,Ga,
Systematic_Generation,,5e+17,CdTe:Ga_5.0e+17,,Inherited,,,,,,,,,DOPED_005495,,,Doped_Semiconductor,,,CdTe_Ga,CdTe + Ga @ 5.0e+17 cm^-3,,,Ga,
Systematic_Generation,,1e+18,CdTe:Ga_1.0e+18,,Inherited,,,,,,,,,DOPED_005496,,,Doped_Semiconductor,,,CdTe_Ga,CdTe + Ga @ 1.0e+18 cm^-3,,,Ga,
Systematic_Generation,,5e+18,CdTe:Ga_5.0e+18,,Inherited,,,,,,,,,DOPED_005497,,,Doped_Semiconductor,,,CdTe_Ga,CdTe + Ga @ 5.0e+18 cm^-3,,,Ga,
Systematic_Generation,,1e+19,CdTe:Ga_1.0e+19,,Inherited,,,,,,,,,DOPED_005498,,,Doped_Semiconductor,,,CdTe_Ga,CdTe + Ga @ 1.0e+19 cm^-3,,,Ga,
Systematic_Generation,,5e+19,CdTe:Ga_5.0e+19,,Inherited,,,,,,,,,DOPED_005499,,,Doped_Semiconductor,,,CdTe_Ga,CdTe + Ga @ 5.0e+19 cm^-3,,,Ga,
Systematic_Generation,,1e+20,CdTe:Ga_1.0e+20,,Inherited,,,,,,,,,DOPED_005500,,,Doped_Semiconductor,,,CdTe_Ga,CdTe + Ga @ 1.0e+20 cm^-3,,,Ga,
Systematic_Generation,,1e+21,CdTe:Ga_1.0e+21,,Inherited,,,,,,,,,DOPED_005501,,,Doped_Semiconductor,,,CdTe_Ga,CdTe + Ga @ 1.0e+21 cm^-3,,,Ga,
Systematic_Generation,,1000000000000000.0,CdTe:In_1.0e+15,,Inherited,,,,,,,,,DOPED_005502,,,Doped_Semiconductor,,,CdTe_In,CdTe + In @ 1.0e+15 cm^-3,,,In,
Systematic_Generation,,5000000000000000.0,CdTe:In_5.0e+15,,Inherited,,,,,,,,,DOPED_005503,,,Doped_Semiconductor,,,CdTe_In,CdTe + In @ 5.0e+15 cm^-3,,,In,
Systematic_Generation,,1e+16,CdTe:In_1.0e+16,,Inherited,,,,,,,,,DOPED_005504,,,Doped_Semiconductor,,,CdTe_In,CdTe + In @ 1.0e+16 cm^-3,,,In,
Systematic_Generation,,5e+16,CdTe:In_5.0e+16,,Inherited,,,,,,,,,DOPED_005505,,,Doped_Semiconductor,,,CdTe_In,CdTe + In @ 5.0e+16 cm^-3,,,In,
Systematic_Generation,,1e+17,CdTe:In_1.0e+17,,Inherited,,,,,,,,,DOPED_005506,,,Doped_Semiconductor,,,CdTe_In,CdTe + In @ 1.0e+17 cm^-3,,,In,
Systematic_Generation,,5e+17,CdTe:In_5.0e+17,,Inherited,,,,,,,,,DOPED_005507,,,Doped_Semiconductor,,,CdTe_In,CdTe + In @ 5.0e+17 cm^-3,,,In,
Systematic_Generation,,1e+18,CdTe:In_1.0e+18,,Inherited,,,,,,,,,DOPED_005508,,,Doped_Semiconductor,,,CdTe_In,CdTe + In @ 1.0e+18 cm^-3,,,In,
Systematic_Generation,,5e+18,CdTe:In_5.0e+18,,Inherited,,,,,,,,,DOPED_005509,,,Doped_Semiconductor,,,CdTe_In,CdTe + In @ 5.0e+18 cm^-3,,,In,
Systematic_Generation,,1e+19,CdTe:In_1.0e+19,,Inherited,,,,,,,,,DOPED_005510,,,Doped_Semiconductor,,,CdTe_In,CdTe + In @ 1.0e+19 cm^-3,,,In,
Systematic_Generation,,5e+19,CdTe:In_5.0e+19,,Inherited,,,,,,,,,DOPED_005511,,,Doped_Semiconductor,,,CdTe_In,CdTe + In @ 5.0e+19 cm^-3,,,In,
Systematic_Generation,,1e+20,CdTe:In_1.0e+20,,Inherited,,,,,,,,,DOPED_005512,,,Doped_Semiconductor,,,CdTe_In,CdTe + In @ 1.0e+20 cm^-3,,,In,
Systematic_Generation,,1e+21,CdTe:In_1.0e+21,,Inherited,,,,,,,,,DOPED_005513,,,Doped_Semiconductor,,,CdTe_In,CdTe + In @ 1.0e+21 cm^-3,,,In,
Systematic_Generation,,1000000000000000.0,CdTe:Bi_1.0e+15,,Inherited,,,,,,,,,DOPED_005514,,,Doped_Semiconductor,,,CdTe_Bi,CdTe + Bi @ 1.0e+15 cm^-3,,,Bi,
Systematic_Generation,,5000000000000000.0,CdTe:Bi_5.0e+15,,Inherited,,,,,,,,,DOPED_005515,,,Doped_Semiconductor,,,CdTe_Bi,CdTe + Bi @ 5.0e+15 cm^-3,,,Bi,
Systematic_Generation,,1e+16,CdTe:Bi_1.0e+16,,Inherited,,,,,,,,,DOPED_005516,,,Doped_Semiconductor,,,CdTe_Bi,CdTe + Bi @ 1.0e+16 cm^-3,,,Bi,
Systematic_Generation,,5e+16,CdTe:Bi_5.0e+16,,Inherited,,,,,,,,,DOPED_005517,,,Doped_Semiconductor,,,CdTe_Bi,CdTe + Bi @ 5.0e+16 cm^-3,,,Bi,
Systematic_Generation,,1e+17,CdTe:Bi_1.0e+17,,Inherited,,,,,,,,,DOPED_005518,,,Doped_Semiconductor,,,CdTe_Bi,CdTe + Bi @ 1.0e+17 cm^-3,,,Bi,
Systematic_Generation,,5e+17,CdTe:Bi_5.0e+17,,Inherited,,,,,,,,,DOPED_005519,,,Doped_Semiconductor,,,CdTe_Bi,CdTe + Bi @ 5.0e+17 cm^-3,,,Bi,
Systematic_Generation,,1e+18,CdTe:Bi_1.0e+18,,Inherited,,,,,,,,,DOPED_005520,,,Doped_Semiconductor,,,CdTe_Bi,CdTe + Bi @ 1.0e+18 cm^-3,,,Bi,
Systematic_Generation,,5e+18,CdTe:Bi_5.0e+18,,Inherited,,,,,,,,,DOPED_005521,,,Doped_Semiconductor,,,CdTe_Bi,CdTe + Bi @ 5.0e+18 cm^-3,,,Bi,
Systematic_Generation,,1e+19,CdTe:Bi_1.0e+19,,Inherited,,,,,,,,,DOPED_005522,,,Doped_Semiconductor,,,CdTe_Bi,CdTe + Bi @ 1.0e+19 cm^-3,,,Bi,
Systematic_Generation,,5e+19,CdTe:Bi_5.0e+19,,Inherited,,,,,,,,,DOPED_005523,,,Doped_Semiconductor,,,CdTe_Bi,CdTe + Bi @ 5.0e+19 cm^-3,,,Bi,
Systematic_Generation,,1e+20,CdTe:Bi_1.0e+20,,Inherited,,,,,,,,,DOPED_005524,,,Doped_Semiconductor,,,CdTe_Bi,CdTe + Bi @ 1.0e+20 cm^-3,,,Bi,
Systematic_Generation,,1e+21,CdTe:Bi_1.0e+21,,Inherited,,,,,,,,,DOPED_005525,,,Doped_Semiconductor,,,CdTe_Bi,CdTe + Bi @ 1.0e+21 cm^-3,,,Bi,
Systematic_Generation,,1000000000000000.0,CdTe:Li_1.0e+15,,Inherited,,,,,,,,,DOPED_005526,,,Doped_Semiconductor,,,CdTe_Li,CdTe + Li @ 1.0e+15 cm^-3,,,Li,
Systematic_Generation,,5000000000000000.0,CdTe:Li_5.0e+15,,Inherited,,,,,,,,,DOPED_005527,,,Doped_Semiconductor,,,CdTe_Li,CdTe + Li @ 5.0e+15 cm^-3,,,Li,
Systematic_Generation,,1e+16,CdTe:Li_1.0e+16,,Inherited,,,,,,,,,DOPED_005528,,,Doped_Semiconductor,,,CdTe_Li,CdTe + Li @ 1.0e+16 cm^-3,,,Li,
Systematic_Generation,,5e+16,CdTe:Li_5.0e+16,,Inherited,,,,,,,,,DOPED_005529,,,Doped_Semiconductor,,,CdTe_Li,CdTe + Li @ 5.0e+16 cm^-3,,,Li,
Systematic_Generation,,1e+17,CdTe:Li_1.0e+17,,Inherited,,,,,,,,,DOPED_005530,,,Doped_Semiconductor,,,CdTe_Li,CdTe + Li @ 1.0e+17 cm^-3,,,Li,
Systematic_Generation,,5e+17,CdTe:Li_5.0e+17,,Inherited,,,,,,,,,DOPED_005531,,,Doped_Semiconductor,,,CdTe_Li,CdTe + Li @ 5.0e+17 cm^-3,,,Li,
Systematic_Generation,,1e+18,CdTe:Li_1.0e+18,,Inherited,,,,,,,,,DOPED_005532,,,Doped_Semiconductor,,,CdTe_Li,CdTe + Li @ 1.0e+18 cm^-3,,,Li,
Systematic_Generation,,5e+18,CdTe:Li_5.0e+18,,Inherited,,,,,,,,,DOPED_005533,,,Doped_Semiconductor,,,CdTe_Li,CdTe + Li @ 5.0e+18 cm^-3,,,Li,
Systematic_Generation,,1e+19,CdTe:Li_1.0e+19,,Inherited,,,,,,,,,DOPED_005534,,,Doped_Semiconductor,,,CdTe_Li,CdTe + Li @ 1.0e+19 cm^-3,,,Li,
Systematic_Generation,,5e+19,CdTe:Li_5.0e+19,,Inherited,,,,,,,,,DOPED_005535,,,Doped_Semiconductor,,,CdTe_Li,CdTe + Li @ 5.0e+19 cm^-3,,,Li,
Systematic_Generation,,1e+20,CdTe:Li_1.0e+20,,Inherited,,,,,,,,,DOPED_005536,,,Doped_Semiconductor,,,CdTe_Li,CdTe + Li @ 1.0e+20 cm^-3,,,Li,
Systematic_Generation,,1e+21,CdTe:Li_1.0e+21,,Inherited,,,,,,,,,DOPED_005537,,,Doped_Semiconductor,,,CdTe_Li,CdTe + Li @ 1.0e+21 cm^-3,,,Li,
Systematic_Generation,,1000000000000000.0,CdTe:S_1.0e+15,,Inherited,,,,,,,,,DOPED_005538,,,Doped_Semiconductor,,,CdTe_S,CdTe + S @ 1.0e+15 cm^-3,,,S,
Systematic_Generation,,5000000000000000.0,CdTe:S_5.0e+15,,Inherited,,,,,,,,,DOPED_005539,,,Doped_Semiconductor,,,CdTe_S,CdTe + S @ 5.0e+15 cm^-3,,,S,
Systematic_Generation,,1e+16,CdTe:S_1.0e+16,,Inherited,,,,,,,,,DOPED_005540,,,Doped_Semiconductor,,,CdTe_S,CdTe + S @ 1.0e+16 cm^-3,,,S,
Systematic_Generation,,5e+16,CdTe:S_5.0e+16,,Inherited,,,,,,,,,DOPED_005541,,,Doped_Semiconductor,,,CdTe_S,CdTe + S @ 5.0e+16 cm^-3,,,S,
Systematic_Generation,,1e+17,CdTe:S_1.0e+17,,Inherited,,,,,,,,,DOPED_005542,,,Doped_Semiconductor,,,CdTe_S,CdTe + S @ 1.0e+17 cm^-3,,,S,
Systematic_Generation,,5e+17,CdTe:S_5.0e+17,,Inherited,,,,,,,,,DOPED_005543,,,Doped_Semiconductor,,,CdTe_S,CdTe + S @ 5.0e+17 cm^-3,,,S,
Systematic_Generation,,1e+18,CdTe:S_1.0e+18,,Inherited,,,,,,,,,DOPED_005544,,,Doped_Semiconductor,,,CdTe_S,CdTe + S @ 1.0e+18 cm^-3,,,S,
Systematic_Generation,,5e+18,CdTe:S_5.0e+18,,Inherited,,,,,,,,,DOPED_005545,,,Doped_Semiconductor,,,CdTe_S,CdTe + S @ 5.0e+18 cm^-3,,,S,
Systematic_Generation,,1e+19,CdTe:S_1.0e+19,,Inherited,,,,,,,,,DOPED_005546,,,Doped_Semiconductor,,,CdTe_S,CdTe + S @ 1.0e+19 cm^-3,,,S,
Systematic_Generation,,5e+19,CdTe:S_5.0e+19,,Inherited,,,,,,,,,DOPED_005547,,,Doped_Semiconductor,,,CdTe_S,CdTe + S @ 5.0e+19 cm^-3,,,S,
Systematic_Generation,,1e+20,CdTe:S_1.0e+20,,Inherited,,,,,,,,,DOPED_005548,,,Doped_Semiconductor,,,CdTe_S,CdTe + S @ 1.0e+20 cm^-3,,,S,
Systematic_Generation,,1e+21,CdTe:S_1.0e+21,,Inherited,,,,,,,,,DOPED_005549,,,Doped_Semiconductor,,,CdTe_S,CdTe + S @ 1.0e+21 cm^-3,,,S,
Systematic_Generation,,1000000000000000.0,CdTe:Se_1.0e+15,,Inherited,,,,,,,,,DOPED_005550,,,Doped_Semiconductor,,,CdTe_Se,CdTe + Se @ 1.0e+15 cm^-3,,,Se,
Systematic_Generation,,5000000000000000.0,CdTe:Se_5.0e+15,,Inherited,,,,,,,,,DOPED_005551,,,Doped_Semiconductor,,,CdTe_Se,CdTe + Se @ 5.0e+15 cm^-3,,,Se,
Systematic_Generation,,1e+16,CdTe:Se_1.0e+16,,Inherited,,,,,,,,,DOPED_005552,,,Doped_Semiconductor,,,CdTe_Se,CdTe + Se @ 1.0e+16 cm^-3,,,Se,
Systematic_Generation,,5e+16,CdTe:Se_5.0e+16,,Inherited,,,,,,,,,DOPED_005553,,,Doped_Semiconductor,,,CdTe_Se,CdTe + Se @ 5.0e+16 cm^-3,,,Se,
Systematic_Generation,,1e+17,CdTe:Se_1.0e+17,,Inherited,,,,,,,,,DOPED_005554,,,Doped_Semiconductor,,,CdTe_Se,CdTe + Se @ 1.0e+17 cm^-3,,,Se,
Systematic_Generation,,5e+17,CdTe:Se_5.0e+17,,Inherited,,,,,,,,,DOPED_005555,,,Doped_Semiconductor,,,CdTe_Se,CdTe + Se @ 5.0e+17 cm^-3,,,Se,
Systematic_Generation,,1e+18,CdTe:Se_1.0e+18,,Inherited,,,,,,,,,DOPED_005556,,,Doped_Semiconductor,,,CdTe_Se,CdTe + Se @ 1.0e+18 cm^-3,,,Se,
Systematic_Generation,,5e+18,CdTe:Se_5.0e+18,,Inherited,,,,,,,,,DOPED_005557,,,Doped_Semiconductor,,,CdTe_Se,CdTe + Se @ 5.0e+18 cm^-3,,,Se,
Systematic_Generation,,1e+19,CdTe:Se_1.0e+19,,Inherited,,,,,,,,,DOPED_005558,,,Doped_Semiconductor,,,CdTe_Se,CdTe + Se @ 1.0e+19 cm^-3,,,Se,
Systematic_Generation,,5e+19,CdTe:Se_5.0e+19,,Inherited,,,,,,,,,DOPED_005559,,,Doped_Semiconductor,,,CdTe_Se,CdTe + Se @ 5.0e+19 cm^-3,,,Se,
Systematic_Generation,,1e+20,CdTe:Se_1.0e+20,,Inherited,,,,,,,,,DOPED_005560,,,Doped_Semiconductor,,,CdTe_Se,CdTe + Se @ 1.0e+20 cm^-3,,,Se,
Systematic_Generation,,1e+21,CdTe:Se_1.0e+21,,Inherited,,,,,,,,,DOPED_005561,,,Doped_Semiconductor,,,CdTe_Se,CdTe + Se @ 1.0e+21 cm^-3,,,Se,
Systematic_Generation,,1000000000000000.0,CdTe:Te_1.0e+15,,Inherited,,,,,,,,,DOPED_005562,,,Doped_Semiconductor,,,CdTe_Te,CdTe + Te @ 1.0e+15 cm^-3,,,Te,
Systematic_Generation,,5000000000000000.0,CdTe:Te_5.0e+15,,Inherited,,,,,,,,,DOPED_005563,,,Doped_Semiconductor,,,CdTe_Te,CdTe + Te @ 5.0e+15 cm^-3,,,Te,
Systematic_Generation,,1e+16,CdTe:Te_1.0e+16,,Inherited,,,,,,,,,DOPED_005564,,,Doped_Semiconductor,,,CdTe_Te,CdTe + Te @ 1.0e+16 cm^-3,,,Te,
Systematic_Generation,,5e+16,CdTe:Te_5.0e+16,,Inherited,,,,,,,,,DOPED_005565,,,Doped_Semiconductor,,,CdTe_Te,CdTe + Te @ 5.0e+16 cm^-3,,,Te,
Systematic_Generation,,1e+17,CdTe:Te_1.0e+17,,Inherited,,,,,,,,,DOPED_005566,,,Doped_Semiconductor,,,CdTe_Te,CdTe + Te @ 1.0e+17 cm^-3,,,Te,
Systematic_Generation,,5e+17,CdTe:Te_5.0e+17,,Inherited,,,,,,,,,DOPED_005567,,,Doped_Semiconductor,,,CdTe_Te,CdTe + Te @ 5.0e+17 cm^-3,,,Te,
Systematic_Generation,,1e+18,CdTe:Te_1.0e+18,,Inherited,,,,,,,,,DOPED_005568,,,Doped_Semiconductor,,,CdTe_Te,CdTe + Te @ 1.0e+18 cm^-3,,,Te,
Systematic_Generation,,5e+18,CdTe:Te_5.0e+18,,Inherited,,,,,,,,,DOPED_005569,,,Doped_Semiconductor,,,CdTe_Te,CdTe + Te @ 5.0e+18 cm^-3,,,Te,
Systematic_Generation,,1e+19,CdTe:Te_1.0e+19,,Inherited,,,,,,,,,DOPED_005570,,,Doped_Semiconductor,,,CdTe_Te,CdTe + Te @ 1.0e+19 cm^-3,,,Te,
Systematic_Generation,,5e+19,CdTe:Te_5.0e+19,,Inherited,,,,,,,,,DOPED_005571,,,Doped_Semiconductor,,,CdTe_Te,CdTe + Te @ 5.0e+19 cm^-3,,,Te,
Systematic_Generation,,1e+20,CdTe:Te_1.0e+20,,Inherited,,,,,,,,,DOPED_005572,,,Doped_Semiconductor,,,CdTe_Te,CdTe + Te @ 1.0e+20 cm^-3,,,Te,
Systematic_Generation,,1e+21,CdTe:Te_1.0e+21,,Inherited,,,,,,,,,DOPED_005573,,,Doped_Semiconductor,,,CdTe_Te,CdTe + Te @ 1.0e+21 cm^-3,,,Te,
Systematic_Generation,,,TiS2,,P63/mmc,,,,12.573,,,,Single/Few-layer,TMD_005574,,,TMD_2D,,,TiS2,"Ti:1, S:2",3.001,,,
Systematic_Generation,,,TiSe2,,P63/mmc,,,,12.687,,,,Single/Few-layer,TMD_005575,,,TMD_2D,,,TiSe2,"Ti:1, Se:2",3.286,,,
Systematic_Generation,,,TiTe2,,P63/mmc,,,,13.89,,,,Single/Few-layer,TMD_005576,,,TMD_2D,,,TiTe2,"Ti:1, Te:2",3.427,,,
Systematic_Generation,,,ZrS2,,P63/mmc,,,,12.781,,,,Single/Few-layer,TMD_005577,,,TMD_2D,,,ZrS2,"Zr:1, S:2",3.426,,,
Systematic_Generation,,,ZrSe2,,P63/mmc,,,,13.629,,,,Single/Few-layer,TMD_005578,,,TMD_2D,,,ZrSe2,"Zr:1, Se:2",3.369,,,
Systematic_Generation,,,ZrTe2,,P63/mmc,,,,13.828,,,,Single/Few-layer,TMD_005579,,,TMD_2D,,,ZrTe2,"Zr:1, Te:2",3.402,,,
Systematic_Generation,,,HfS2,,P63/mmc,,,,12.901,,,,Single/Few-layer,TMD_005580,,,TMD_2D,,,HfS2,"Hf:1, S:2",3.116,,,
Systematic_Generation,,,HfSe2,,P63/mmc,,,,13.923,,,,Single/Few-layer,TMD_005581,,,TMD_2D,,,HfSe2,"Hf:1, Se:2",3.436,,,
Systematic_Generation,,,HfTe2,,P63/mmc,,,,13.528,,,,Single/Few-layer,TMD_005582,,,TMD_2D,,,HfTe2,"Hf:1, Te:2",3.488,,,
Systematic_Generation,,,VS2,,P63/mmc,,,,12.037,,,,Single/Few-layer,TMD_005583,,,TMD_2D,,,VS2,"V:1, S:2",3.129,,,
Systematic_Generation,,,VSe2,,P63/mmc,,,,13.065,,,,Single/Few-layer,TMD_005584,,,TMD_2D,,,VSe2,"V:1, Se:2",3.405,,,
Systematic_Generation,,,VTe2,,P63/mmc,,,,13.587,,,,Single/Few-layer,TMD_005585,,,TMD_2D,,,VTe2,"V:1, Te:2",3.041,,,
Systematic_Generation,,,NbS2,,P63/mmc,,,,12.296,,,,Single/Few-layer,TMD_005586,,,TMD_2D,,,NbS2,"Nb:1, S:2",3.454,,,
Systematic_Generation,,,NbSe2,,P63/mmc,,,,13.094,,,,Single/Few-layer,TMD_005587,,,TMD_2D,,,NbSe2,"Nb:1, Se:2",3.4,,,
Systematic_Generation,,,NbTe2,,P63/mmc,,,,13.524,,,,Single/Few-layer,TMD_005588,,,TMD_2D,,,NbTe2,"Nb:1, Te:2",3.382,,,
Systematic_Generation,,,TaS2,,P63/mmc,,,,12.839,,,,Single/Few-layer,TMD_005589,,,TMD_2D,,,TaS2,"Ta:1, S:2",3.235,,,
Systematic_Generation,,,TaSe2,,P63/mmc,,,,12.923,,,,Single/Few-layer,TMD_005590,,,TMD_2D,,,TaSe2,"Ta:1, Se:2",3.127,,,
Systematic_Generation,,,TaTe2,,P63/mmc,,,,13.128,,,,Single/Few-layer,TMD_005591,,,TMD_2D,,,TaTe2,"Ta:1, Te:2",3.326,,,
Systematic_Generation,,,CrS2,,P63/mmc,,,,12.074,,,,Single/Few-layer,TMD_005592,,,TMD_2D,,,CrS2,"Cr:1, S:2",3.308,,,
Systematic_Generation,,,CrSe2,,P63/mmc,,,,12.357,,,,Single/Few-layer,TMD_005593,,,TMD_2D,,,CrSe2,"Cr:1, Se:2",3.373,,,
Systematic_Generation,,,CrTe2,,P63/mmc,,,,12.163,,,,Single/Few-layer,TMD_005594,,,TMD_2D,,,CrTe2,"Cr:1, Te:2",3.05,,,
Systematic_Generation,,,MoS2,,P63/mmc,,,,12.909,,,,Single/Few-layer,TMD_005595,,,TMD_2D,,,MoS2,"Mo:1, S:2",3.144,,,
Systematic_Generation,,,MoSe2,,P63/mmc,,,,13.007,,,,Single/Few-layer,TMD_005596,,,TMD_2D,,,MoSe2,"Mo:1, Se:2",3.491,,,
Systematic_Generation,,,MoTe2,,P63/mmc,,,,13.284,,,,Single/Few-layer,TMD_005597,,,TMD_2D,,,MoTe2,"Mo:1, Te:2",3.358,,,
Systematic_Generation,,,WS2,,P63/mmc,,,,12.405,,,,Single/Few-layer,TMD_005598,,,TMD_2D,,,WS2,"W:1, S:2",3.13,,,
Systematic_Generation,,,WSe2,,P63/mmc,,,,12.323,,,,Single/Few-layer,TMD_005599,,,TMD_2D,,,WSe2,"W:1, Se:2",3.317,,,
Systematic_Generation,,,WTe2,,P63/mmc,,,,13.471,,,,Single/Few-layer,TMD_005600,,,TMD_2D,,,WTe2,"W:1, Te:2",3.296,,,
Systematic_Generation,,,MnS2,,P63/mmc,,,,12.548,,,,Single/Few-layer,TMD_005601,,,TMD_2D,,,MnS2,"Mn:1, S:2",3.166,,,
Systematic_Generation,,,MnSe2,,P63/mmc,,,,13.38,,,,Single/Few-layer,TMD_005602,,,TMD_2D,,,MnSe2,"Mn:1, Se:2",3.338,,,
Systematic_Generation,,,MnTe2,,P63/mmc,,,,13.914,,,,Single/Few-layer,TMD_005603,,,TMD_2D,,,MnTe2,"Mn:1, Te:2",3.203,,,
Systematic_Generation,,,ReS2,,P63/mmc,,,,12.124,,,,Single/Few-layer,TMD_005604,,,TMD_2D,,,ReS2,"Re:1, S:2",3.064,,,
Systematic_Generation,,,ReSe2,,P63/mmc,,,,13.294,,,,Single/Few-layer,TMD_005605,,,TMD_2D,,,ReSe2,"Re:1, Se:2",3.288,,,
Systematic_Generation,,,ReTe2,,P63/mmc,,,,12.879,,,,Single/Few-layer,TMD_005606,,,TMD_2D,,,ReTe2,"Re:1, Te:2",3.444,,,
Systematic_Generation,,,FeS2,,P63/mmc,,,,12.367,,,,Single/Few-layer,TMD_005607,,,TMD_2D,,,FeS2,"Fe:1, S:2",3.034,,,
Systematic_Generation,,,FeSe2,,P63/mmc,,,,13.29,,,,Single/Few-layer,TMD_005608,,,TMD_2D,,,FeSe2,"Fe:1, Se:2",3.256,,,
Systematic_Generation,,,FeTe2,,P63/mmc,,,,12.546,,,,Single/Few-layer,TMD_005609,,,TMD_2D,,,FeTe2,"Fe:1, Te:2",3.169,,,
Systematic_Generation,,,CoS2,,P63/mmc,,,,12.422,,,,Single/Few-layer,TMD_005610,,,TMD_2D,,,CoS2,"Co:1, S:2",3.395,,,
Systematic_Generation,,,CoSe2,,P63/mmc,,,,12.102,,,,Single/Few-layer,TMD_005611,,,TMD_2D,,,CoSe2,"Co:1, Se:2",3.449,,,
Systematic_Generation,,,CoTe2,,P63/mmc,,,,12.204,,,,Single/Few-layer,TMD_005612,,,TMD_2D,,,CoTe2,"Co:1, Te:2",3.239,,,
Systematic_Generation,,,NiS2,,P63/mmc,,,,13.89,,,,Single/Few-layer,TMD_005613,,,TMD_2D,,,NiS2,"Ni:1, S:2",3.38,,,
Systematic_Generation,,,NiSe2,,P63/mmc,,,,12.456,,,,Single/Few-layer,TMD_005614,,,TMD_2D,,,NiSe2,"Ni:1, Se:2",3.027,,,
Systematic_Generation,,,NiTe2,,P63/mmc,,,,12.117,,,,Single/Few-layer,TMD_005615,,,TMD_2D,,,NiTe2,"Ni:1, Te:2",3.368,,,
Systematic_Generation,,,PdS2,,P63/mmc,,,,13.909,,,,Single/Few-layer,TMD_005616,,,TMD_2D,,,PdS2,"Pd:1, S:2",3.321,,,
Systematic_Generation,,,PdSe2,,P63/mmc,,,,12.164,,,,Single/Few-layer,TMD_005617,,,TMD_2D,,,PdSe2,"Pd:1, Se:2",3.379,,,
Systematic_Generation,,,PdTe2,,P63/mmc,,,,12.381,,,,Single/Few-layer,TMD_005618,,,TMD_2D,,,PdTe2,"Pd:1, Te:2",3.393,,,
Systematic_Generation,,,PtS2,,P63/mmc,,,,12.687,,,,Single/Few-layer,TMD_005619,,,TMD_2D,,,PtS2,"Pt:1, S:2",3.242,,,
Systematic_Generation,,,PtSe2,,P63/mmc,,,,12.108,,,,Single/Few-layer,TMD_005620,,,TMD_2D,,,PtSe2,"Pt:1, Se:2",3.052,,,
Systematic_Generation,,,PtTe2,,P63/mmc,,,,13.23,,,,Single/Few-layer,TMD_005621,,,TMD_2D,,,PtTe2,"Pt:1, Te:2",3.123,,,
Systematic_Generation,,,Ti2C1T1,O,P63/mmc,,,,21.514,,,,,MXENE_005622,,,MXene_2D,,,Ti2C1T1,"Ti:2, C:1, Termination:O",3.17,,,
Systematic_Generation,,,Ti2C1T2,OH,P63/mmc,,,,21.466,,,,,MXENE_005623,,,MXene_2D,,,Ti2C1T2,"Ti:2, C:1, Termination:OH",3.025,,,
Systematic_Generation,,,Ti2C1T1,F,P63/mmc,,,,19.705,,,,,MXENE_005624,,,MXene_2D,,,Ti2C1T1,"Ti:2, C:1, Termination:F",3.003,,,
Systematic_Generation,,,Ti2C1T2,Cl,P63/mmc,,,,21.732,,,,,MXENE_005625,,,MXene_2D,,,Ti2C1T2,"Ti:2, C:1, Termination:Cl",3.167,,,
Systematic_Generation,,,Ti3C2T1,O,P63/mmc,,,,22.106,,,,,MXENE_005626,,,MXene_2D,,,Ti3C2T1,"Ti:3, C:2, Termination:O",3.187,,,
Systematic_Generation,,,Ti3C2T2,OH,P63/mmc,,,,18.725,,,,,MXENE_005627,,,MXene_2D,,,Ti3C2T2,"Ti:3, C:2, Termination:OH",3.187,,,
Systematic_Generation,,,Ti3C2T1,F,P63/mmc,,,,20.86,,,,,MXENE_005628,,,MXene_2D,,,Ti3C2T1,"Ti:3, C:2, Termination:F",3.102,,,
Systematic_Generation,,,Ti3C2T2,Cl,P63/mmc,,,,21.628,,,,,MXENE_005629,,,MXene_2D,,,Ti3C2T2,"Ti:3, C:2, Termination:Cl",3.051,,,
Systematic_Generation,,,Ti4C3T1,O,P63/mmc,,,,21.788,,,,,MXENE_005630,,,MXene_2D,,,Ti4C3T1,"Ti:4, C:3, Termination:O",3.104,,,
Systematic_Generation,,,Ti4C3T2,OH,P63/mmc,,,,22.093,,,,,MXENE_005631,,,MXene_2D,,,Ti4C3T2,"Ti:4, C:3, Termination:OH",3.011,,,
Systematic_Generation,,,Ti4C3T1,F,P63/mmc,,,,22.207,,,,,MXENE_005632,,,MXene_2D,,,Ti4C3T1,"Ti:4, C:3, Termination:F",3.181,,,
Systematic_Generation,,,Ti4C3T2,Cl,P63/mmc,,,,18.383,,,,,MXENE_005633,,,MXene_2D,,,Ti4C3T2,"Ti:4, C:3, Termination:Cl",3.067,,,
Systematic_Generation,,,Ti2N1T1,O,P63/mmc,,,,22.354,,,,,MXENE_005634,,,MXene_2D,,,Ti2N1T1,"Ti:2, N:1, Termination:O",3.117,,,
Systematic_Generation,,,Ti2N1T2,OH,P63/mmc,,,,21.92,,,,,MXENE_005635,,,MXene_2D,,,Ti2N1T2,"Ti:2, N:1, Termination:OH",3.164,,,
Systematic_Generation,,,Ti2N1T1,F,P63/mmc,,,,20.012,,,,,MXENE_005636,,,MXene_2D,,,Ti2N1T1,"Ti:2, N:1, Termination:F",3.024,,,
Systematic_Generation,,,Ti2N1T2,Cl,P63/mmc,,,,20.269,,,,,MXENE_005637,,,MXene_2D,,,Ti2N1T2,"Ti:2, N:1, Termination:Cl",3.074,,,
Systematic_Generation,,,Ti3N2T1,O,P63/mmc,,,,22.481,,,,,MXENE_005638,,,MXene_2D,,,Ti3N2T1,"Ti:3, N:2, Termination:O",3.101,,,