source,n_elements,doping_concentration,name,termination,space_group,doping_level,volume_fraction,weight_percent,lattice_c,temperature,reinforcement,matrix,layers,material_id,molecular_weight,deposition_method,type,lattice_b,pdi,formula,composition,lattice_a,thickness_nm,dopant,substrate
Systematic_Generation,,,Al3O4,,Pnma,,,,5.655,,,,,BIN_000367,,,Binary_Oxide,4.332,,Al3O4,Al:O = 3:4,5.959,,,
Systematic_Generation,,,Al2O5,,R-3m,,,,14.569,,,,,BIN_000368,,,Binary_Oxide,8.348,,Al2O5,Al:O = 2:5,6.163,,,
Systematic_Generation,,,AlO4,,Pnma,,,,10.569,,,,,BIN_000369,,,Binary_Oxide,7.678,,AlO4,Al:O = 1:4,4.83,,,
Systematic_Generation,,,GaO,,R-3m,,,,7.176,,,,,BIN_000370,,,Binary_Oxide,5.982,,GaO,Ga:O = 1:1,9.635,,,
Systematic_Generation,,,Ga2O,,Pnma,,,,14.439,,,,,BIN_000371,,,Binary_Oxide,9.125,,Ga2O,Ga:O = 2:1,8.098,,,
Systematic_Generation,,,GaO2,,P21/c,,,,8.277,,,,,BIN_000372,,,Binary_Oxide,8.077,,GaO2,Ga:O = 1:2,5.066,,,
Systematic_Generation,,,Ga2O3,,R-3m,,,,9.484,,,,,BIN_000373,,,Binary_Oxide,6.294,,Ga2O3,Ga:O = 2:3,6.044,,,
Systematic_Generation,,,GaO3,,R-3m,,,,8.646,,,,,BIN_000374,,,Binary_Oxide,4.444,,GaO3,Ga:O = 1:3,4.592,,,
Systematic_Generation,,,Ga3O2,,P63/mmc,,,,4.315,,,,,BIN_000375,,,Binary_Oxide,7.853,,Ga3O2,Ga:O = 3:2,7.428,,,
Systematic_Generation,,,Ga3O4,,Fm-3m,,,,7.888,,,,,BIN_000376,,,Binary_Oxide,3.713,,Ga3O4,Ga:O = 3:4,6.687,,,
Systematic_Generation,,,Ga2O5,,R-3m,,,,8.158,,,,,BIN_000377,,,Binary_Oxide,3.672,,Ga2O5,Ga:O = 2:5,4.43,,,
Systematic_Generation,,,GaO4,,P63/mmc,,,,14.104,,,,,BIN_000378,,,Binary_Oxide,6.268,,GaO4,Ga:O = 1:4,5.451,,,
Systematic_Generation,,,InO,,P63/mmc,,,,12.458,,,,,BIN_000379,,,Binary_Oxide,9.69,,InO,In:O = 1:1,4.626,,,
Systematic_Generation,,,In2O,,Pnma,,,,3.293,,,,,BIN_000380,,,Binary_Oxide,9.408,,In2O,In:O = 2:1,8.31,,,
Systematic_Generation,,,InO2,,P63/mmc,,,,3.723,,,,,BIN_000381,,,Binary_Oxide,6.717,,InO2,In:O = 1:2,4.713,,,
Systematic_Generation,,,In2O3,,Pnma,,,,8.117,,,,,BIN_000382,,,Binary_Oxide,7.528,,In2O3,In:O = 2:3,6.062,,,
Systematic_Generation,,,InO3,,P63/mmc,,,,7.669,,,,,BIN_000383,,,Binary_Oxide,9.554,,InO3,In:O = 1:3,4.478,,,
Systematic_Generation,,,In3O2,,Fm-3m,,,,14.605,,,,,BIN_000384,,,Binary_Oxide,5.239,,In3O2,In:O = 3:2,7.719,,,
Systematic_Generation,,,In3O4,,P21/c,,,,4.415,,,,,BIN_000385,,,Binary_Oxide,6.829,,In3O4,In:O = 3:4,9.218,,,
Systematic_Generation,,,In2O5,,Fm-3m,,,,13.317,,,,,BIN_000386,,,Binary_Oxide,5.462,,In2O5,In:O = 2:5,6.267,,,
Systematic_Generation,,,InO4,,Fm-3m,,,,13.99,,,,,BIN_000387,,,Binary_Oxide,8.373,,InO4,In:O = 1:4,9.007,,,
Systematic_Generation,,,SnO,,Pnma,,,,11.221,,,,,BIN_000388,,,Binary_Oxide,5.22,,SnO,Sn:O = 1:1,7.997,,,
Systematic_Generation,,,Sn2O,,R-3m,,,,10.867,,,,,BIN_000389,,,Binary_Oxide,6.193,,Sn2O,Sn:O = 2:1,8.508,,,
Systematic_Generation,,,SnO2,,P21/c,,,,4.676,,,,,BIN_000390,,,Binary_Oxide,7.676,,SnO2,Sn:O = 1:2,3.02,,,
Systematic_Generation,,,Sn2O3,,Fm-3m,,,,8.096,,,,,BIN_000391,,,Binary_Oxide,4.159,,Sn2O3,Sn:O = 2:3,3.848,,,
Systematic_Generation,,,SnO3,,Fm-3m,,,,8.264,,,,,BIN_000392,,,Binary_Oxide,5.777,,SnO3,Sn:O = 1:3,6.784,,,
Systematic_Generation,,,Sn3O2,,P63/mmc,,,,11.813,,,,,BIN_000393,,,Binary_Oxide,3.722,,Sn3O2,Sn:O = 3:2,6.371,,,
Systematic_Generation,,,Sn3O4,,P63/mmc,,,,8.25,,,,,BIN_000394,,,Binary_Oxide,5.494,,Sn3O4,Sn:O = 3:4,8.933,,,
Systematic_Generation,,,Sn2O5,,Pnma,,,,13.549,,,,,BIN_000395,,,Binary_Oxide,3.56,,Sn2O5,Sn:O = 2:5,7.144,,,
Systematic_Generation,,,SnO4,,R-3m,,,,14.601,,,,,BIN_000396,,,Binary_Oxide,6.179,,SnO4,Sn:O = 1:4,5.698,,,
Systematic_Generation,,,TlO,,Fm-3m,,,,8.701,,,,,BIN_000397,,,Binary_Oxide,4.06,,TlO,Tl:O = 1:1,6.95,,,
Systematic_Generation,,,Tl2O,,Pnma,,,,7.605,,,,,BIN_000398,,,Binary_Oxide,4.206,,Tl2O,Tl:O = 2:1,4.75,,,
Systematic_Generation,,,TlO2,,R-3m,,,,9.58,,,,,BIN_000399,,,Binary_Oxide,3.657,,TlO2,Tl:O = 1:2,6.656,,,
Systematic_Generation,,,Tl2O3,,Fm-3m,,,,9.311,,,,,BIN_000400,,,Binary_Oxide,5.143,,Tl2O3,Tl:O = 2:3,3.638,,,
Systematic_Generation,,,TlO3,,P63/mmc,,,,6.812,,,,,BIN_000401,,,Binary_Oxide,3.509,,TlO3,Tl:O = 1:3,5.263,,,
Systematic_Generation,,,Tl3O2,,P63/mmc,,,,10.69,,,,,BIN_000402,,,Binary_Oxide,7.229,,Tl3O2,Tl:O = 3:2,9.9,,,
Systematic_Generation,,,Tl3O4,,P63/mmc,,,,13.517,,,,,BIN_000403,,,Binary_Oxide,4.851,,Tl3O4,Tl:O = 3:4,8.362,,,
Systematic_Generation,,,Tl2O5,,Fm-3m,,,,11.198,,,,,BIN_000404,,,Binary_Oxide,7.009,,Tl2O5,Tl:O = 2:5,8.496,,,
Systematic_Generation,,,TlO4,,Fm-3m,,,,11.346,,,,,BIN_000405,,,Binary_Oxide,4.321,,TlO4,Tl:O = 1:4,4.352,,,
Systematic_Generation,,,PbO,,Fm-3m,,,,12.167,,,,,BIN_000406,,,Binary_Oxide,4.908,,PbO,Pb:O = 1:1,4.842,,,
Systematic_Generation,,,Pb2O,,Fm-3m,,,,9.408,,,,,BIN_000407,,,Binary_Oxide,9.106,,Pb2O,Pb:O = 2:1,3.878,,,
Systematic_Generation,,,PbO2,,P63/mmc,,,,3.889,,,,,BIN_000408,,,Binary_Oxide,3.984,,PbO2,Pb:O = 1:2,7.878,,,
Systematic_Generation,,,Pb2O3,,Pnma,,,,12.493,,,,,BIN_000409,,,Binary_Oxide,4.986,,Pb2O3,Pb:O = 2:3,7.378,,,
Systematic_Generation,,,PbO3,,P21/c,,,,4.364,,,,,BIN_000410,,,Binary_Oxide,6.874,,PbO3,Pb:O = 1:3,4.115,,,
Systematic_Generation,,,Pb3O2,,P21/c,,,,7.997,,,,,BIN_000411,,,Binary_Oxide,9.073,,Pb3O2,Pb:O = 3:2,4.461,,,
Systematic_Generation,,,Pb3O4,,P21/c,,,,5.085,,,,,BIN_000412,,,Binary_Oxide,3.671,,Pb3O4,Pb:O = 3:4,4.492,,,
Systematic_Generation,,,Pb2O5,,Fm-3m,,,,9.006,,,,,BIN_000413,,,Binary_Oxide,8.825,,Pb2O5,Pb:O = 2:5,6.284,,,
Systematic_Generation,,,PbO4,,Fm-3m,,,,7.672,,,,,BIN_000414,,,Binary_Oxide,8.714,,PbO4,Pb:O = 1:4,5.578,,,
Systematic_Generation,,,BiO,,Pnma,,,,13.223,,,,,BIN_000415,,,Binary_Oxide,6.367,,BiO,Bi:O = 1:1,6.817,,,
Systematic_Generation,,,Bi2O,,Pnma,,,,9.084,,,,,BIN_000416,,,Binary_Oxide,7.562,,Bi2O,Bi:O = 2:1,7.481,,,
Systematic_Generation,,,BiO2,,R-3m,,,,11.209,,,,,BIN_000417,,,Binary_Oxide,3.651,,BiO2,Bi:O = 1:2,9.788,,,
Systematic_Generation,,,Bi2O3,,P21/c,,,,10.134,,,,,BIN_000418,,,Binary_Oxide,9.163,,Bi2O3,Bi:O = 2:3,9.525,,,
Systematic_Generation,,,BiO3,,Fm-3m,,,,12.517,,,,,BIN_000419,,,Binary_Oxide,4.383,,BiO3,Bi:O = 1:3,4.469,,,
Systematic_Generation,,,Bi3O2,,Fm-3m,,,,6.044,,,,,BIN_000420,,,Binary_Oxide,7.626,,Bi3O2,Bi:O = 3:2,6.217,,,
Systematic_Generation,,,Bi3O4,,P21/c,,,,13.965,,,,,BIN_000421,,,Binary_Oxide,7.085,,Bi3O4,Bi:O = 3:4,4.304,,,
Systematic_Generation,,,Bi2O5,,P21/c,,,,12.349,,,,,BIN_000422,,,Binary_Oxide,3.968,,Bi2O5,Bi:O = 2:5,4.268,,,
Systematic_Generation,,,BiO4,,Fm-3m,,,,14.44,,,,,BIN_000423,,,Binary_Oxide,3.593,,BiO4,Bi:O = 1:4,9.626,,,
Systematic_Generation,,,LiS,,R-3m,,,,17.345,,,,,BIN_000424,,,Binary_Chalcogenide,5.04,,LiS,Li:S = 1:1,5.906,,,
Systematic_Generation,,,LiS2,,Fm-3m,,,,17.656,,,,,BIN_000425,,,Binary_Chalcogenide,7.884,,LiS2,Li:S = 1:2,4.953,,,
Systematic_Generation,,,Li2S3,,R-3m,,,,14.935,,,,,BIN_000426,,,Binary_Chalcogenide,6.401,,Li2S3,Li:S = 2:3,6.517,,,
Systematic_Generation,,,Li3S4,,P63/mmc,,,,12.738,,,,,BIN_000427,,,Binary_Chalcogenide,3.938,,Li3S4,Li:S = 3:4,4.87,,,
Systematic_Generation,,,LiSe,,Fm-3m,,,,5.467,,,,,BIN_000428,,,Binary_Chalcogenide,3.991,,LiSe,Li:Se = 1:1,6.38,,,
Systematic_Generation,,,LiSe2,,P63/mmc,,,,14.36,,,,,BIN_000429,,,Binary_Chalcogenide,5.571,,LiSe2,Li:Se = 1:2,5.519,,,
Systematic_Generation,,,Li2Se3,,Fm-3m,,,,18.153,,,,,BIN_000430,,,Binary_Chalcogenide,6.274,,Li2Se3,Li:Se = 2:3,5.514,,,
Systematic_Generation,,,Li3Se4,,R-3m,,,,13.085,,,,,BIN_000431,,,Binary_Chalcogenide,7.195,,Li3Se4,Li:Se = 3:4,7.913,,,
Systematic_Generation,,,LiTe,,P-3m1,,,,15.346,,,,,BIN_000432,,,Binary_Chalcogenide,5.822,,LiTe,Li:Te = 1:1,7.046,,,
Systematic_Generation,,,LiTe2,,R-3m,,,,11.916,,,,,BIN_000433,,,Binary_Chalcogenide,6.329,,LiTe2,Li:Te = 1:2,7.853,,,
Systematic_Generation,,,Li2Te3,,P63/mmc,,,,13.459,,,,,BIN_000434,,,Binary_Chalcogenide,4.367,,Li2Te3,Li:Te = 2:3,7.356,,,
Systematic_Generation,,,Li3Te4,,P63/mmc,,,,5.024,,,,,BIN_000435,,,Binary_Chalcogenide,4.521,,Li3Te4,Li:Te = 3:4,7.561,,,
Systematic_Generation,,,NaS,,P-3m1,,,,12.274,,,,,BIN_000436,,,Binary_Chalcogenide,6.78,,NaS,Na:S = 1:1,6.04,,,
Systematic_Generation,,,NaS2,,R-3m,,,,7.073,,,,,BIN_000437,,,Binary_Chalcogenide,4.884,,NaS2,Na:S = 1:2,6.331,,,
Systematic_Generation,,,Na2S3,,R-3m,,,,14.475,,,,,BIN_000438,,,Binary_Chalcogenide,5.153,,Na2S3,Na:S = 2:3,6.933,,,
Systematic_Generation,,,Na3S4,,P63/mmc,,,,11.577,,,,,BIN_000439,,,Binary_Chalcogenide,7.15,,Na3S4,Na:S = 3:4,6.798,,,
Systematic_Generation,,,NaSe,,P63/mmc,,,,5.663,,,,,BIN_000440,,,Binary_Chalcogenide,4.424,,NaSe,Na:Se = 1:1,4.974,,,
Systematic_Generation,,,NaSe2,,Fm-3m,,,,13.595,,,,,BIN_000441,,,Binary_Chalcogenide,4.029,,NaSe2,Na:Se = 1:2,7.012,,,
Systematic_Generation,,,Na2Se3,,Fm-3m,,,,6.481,,,,,BIN_000442,,,Binary_Chalcogenide,5.538,,Na2Se3,Na:Se = 2:3,4.521,,,
Systematic_Generation,,,Na3Se4,,P-3m1,,,,18.945,,,,,BIN_000443,,,Binary_Chalcogenide,5.008,,Na3Se4,Na:Se = 3:4,5.628,,,
Systematic_Generation,,,NaTe,,R-3m,,,,8.678,,,,,BIN_000444,,,Binary_Chalcogenide,5.043,,NaTe,Na:Te = 1:1,3.791,,,
Systematic_Generation,,,NaTe2,,R-3m,,,,16.622,,,,,BIN_000445,,,Binary_Chalcogenide,3.633,,NaTe2,Na:Te = 1:2,4.566,,,
Systematic_Generation,,,Na2Te3,,Fm-3m,,,,16.383,,,,,BIN_000446,,,Binary_Chalcogenide,5.398,,Na2Te3,Na:Te = 2:3,3.887,,,
Systematic_Generation,,,Na3Te4,,Fm-3m,,,,14.812,,,,,BIN_000447,,,Binary_Chalcogenide,3.538,,Na3Te4,Na:Te = 3:4,3.559,,,
Systematic_Generation,,,KS,,R-3m,,,,12.811,,,,,BIN_000448,,,Binary_Chalcogenide,4.311,,KS,K:S = 1:1,5.533,,,
Systematic_Generation,,,KS2,,P63/mmc,,,,5.826,,,,,BIN_000449,,,Binary_Chalcogenide,7.273,,KS2,K:S = 1:2,6.558,,,
Systematic_Generation,,,K2S3,,Fm-3m,,,,12.679,,,,,BIN_000450,,,Binary_Chalcogenide,6.732,,K2S3,K:S = 2:3,6.565,,,
Systematic_Generation,,,K3S4,,P63/mmc,,,,15.514,,,,,BIN_000451,,,Binary_Chalcogenide,6.622,,K3S4,K:S = 3:4,6.404,,,
Systematic_Generation,,,KSe,,Fm-3m,,,,12.7,,,,,BIN_000452,,,Binary_Chalcogenide,7.943,,KSe,K:Se = 1:1,5.176,,,
Systematic_Generation,,,KSe2,,Fm-3m,,,,14.048,,,,,BIN_000453,,,Binary_Chalcogenide,4.23,,KSe2,K:Se = 1:2,7.79,,,
Systematic_Generation,,,K2Se3,,Fm-3m,,,,11.797,,,,,BIN_000454,,,Binary_Chalcogenide,7.576,,K2Se3,K:Se = 2:3,7.617,,,
Systematic_Generation,,,K3Se4,,Fm-3m,,,,17.581,,,,,BIN_000455,,,Binary_Chalcogenide,6.957,,K3Se4,K:Se = 3:4,4.041,,,
Systematic_Generation,,,KTe,,P-3m1,,,,9.139,,,,,BIN_000456,,,Binary_Chalcogenide,4.436,,KTe,K:Te = 1:1,3.737,,,
Systematic_Generation,,,KTe2,,Fm-3m,,,,10.828,,,,,BIN_000457,,,Binary_Chalcogenide,5.552,,KTe2,K:Te = 1:2,5.773,,,
Systematic_Generation,,,K2Te3,,P63/mmc,,,,16.938,,,,,BIN_000458,,,Binary_Chalcogenide,5.253,,K2Te3,K:Te = 2:3,6.313,,,
Systematic_Generation,,,K3Te4,,R-3m,,,,17.368,,,,,BIN_000459,,,Binary_Chalcogenide,6.933,,K3Te4,K:Te = 3:4,3.938,,,
Systematic_Generation,,,RbS,,Fm-3m,,,,17.793,,,,,BIN_000460,,,Binary_Chalcogenide,3.888,,RbS,Rb:S = 1:1,7.671,,,
Systematic_Generation,,,RbS2,,P63/mmc,,,,8.006,,,,,BIN_000461,,,Binary_Chalcogenide,4.271,,RbS2,Rb:S = 1:2,7.97,,,
Systematic_Generation,,,Rb2S3,,P-3m1,,,,18.593,,,,,BIN_000462,,,Binary_Chalcogenide,6.635,,Rb2S3,Rb:S = 2:3,3.722,,,
Systematic_Generation,,,Rb3S4,,P63/mmc,,,,19.588,,,,,BIN_000463,,,Binary_Chalcogenide,7.326,,Rb3S4,Rb:S = 3:4,4.791,,,
Systematic_Generation,,,RbSe,,P63/mmc,,,,5.883,,,,,BIN_000464,,,Binary_Chalcogenide,5.558,,RbSe,Rb:Se = 1:1,6.477,,,
Systematic_Generation,,,RbSe2,,Fm-3m,,,,7.729,,,,,BIN_000465,,,Binary_Chalcogenide,7.453,,RbSe2,Rb:Se = 1:2,5.933,,,
Systematic_Generation,,,Rb2Se3,,R-3m,,,,13.656,,,,,BIN_000466,,,Binary_Chalcogenide,7.608,,Rb2Se3,Rb:Se = 2:3,5.325,,,
Systematic_Generation,,,Rb3Se4,,R-3m,,,,6.733,,,,,BIN_000467,,,Binary_Chalcogenide,6.32,,Rb3Se4,Rb:Se = 3:4,5.909,,,
Systematic_Generation,,,RbTe,,P63/mmc,,,,11.098,,,,,BIN_000468,,,Binary_Chalcogenide,4.264,,RbTe,Rb:Te = 1:1,4.84,,,
Systematic_Generation,,,RbTe2,,P63/mmc,,,,11.939,,,,,BIN_000469,,,Binary_Chalcogenide,7.461,,RbTe2,Rb:Te = 1:2,4.422,,,
Systematic_Generation,,,Rb2Te3,,P63/mmc,,,,9.878,,,,,BIN_000470,,,Binary_Chalcogenide,7.52,,Rb2Te3,Rb:Te = 2:3,4.443,,,
Systematic_Generation,,,Rb3Te4,,R-3m,,,,9.764,,,,,BIN_000471,,,Binary_Chalcogenide,4.237,,Rb3Te4,Rb:Te = 3:4,4.394,,,
Systematic_Generation,,,CsS,,P63/mmc,,,,17.851,,,,,BIN_000472,,,Binary_Chalcogenide,4.025,,CsS,Cs:S = 1:1,5.725,,,
Systematic_Generation,,,CsS2,,Fm-3m,,,,14.535,,,,,BIN_000473,,,Binary_Chalcogenide,5.207,,CsS2,Cs:S = 1:2,5.57,,,
Systematic_Generation,,,Cs2S3,,Fm-3m,,,,9.2,,,,,BIN_000474,,,Binary_Chalcogenide,4.188,,Cs2S3,Cs:S = 2:3,7.01,,,
Systematic_Generation,,,Cs3S4,,R-3m,,,,14.833,,,,,BIN_000475,,,Binary_Chalcogenide,7.529,,Cs3S4,Cs:S = 3:4,4.956,,,
Systematic_Generation,,,CsSe,,Fm-3m,,,,5.619,,,,,BIN_000476,,,Binary_Chalcogenide,7.895,,CsSe,Cs:Se = 1:1,6.258,,,
Systematic_Generation,,,CsSe2,,P63/mmc,,,,19.723,,,,,BIN_000477,,,Binary_Chalcogenide,5.368,,CsSe2,Cs:Se = 1:2,3.674,,,
Systematic_Generation,,,Cs2Se3,,P-3m1,,,,8.166,,,,,BIN_000478,,,Binary_Chalcogenide,4.639,,Cs2Se3,Cs:Se = 2:3,4.575,,,
Systematic_Generation,,,Cs3Se4,,P63/mmc,,,,15.863,,,,,BIN_000479,,,Binary_Chalcogenide,6.672,,Cs3Se4,Cs:Se = 3:4,5.71,,,
Systematic_Generation,,,CsTe,,Fm-3m,,,,9.513,,,,,BIN_000480,,,Binary_Chalcogenide,6.483,,CsTe,Cs:Te = 1:1,5.373,,,
Systematic_Generation,,,CsTe2,,P63/mmc,,,,17.736,,,,,BIN_000481,,,Binary_Chalcogenide,5.419,,CsTe2,Cs:Te = 1:2,5.875,,,
Systematic_Generation,,,Cs2Te3,,Fm-3m,,,,13.459,,,,,BIN_000482,,,Binary_Chalcogenide,4.674,,Cs2Te3,Cs:Te = 2:3,7.957,,,
Systematic_Generation,,,Cs3Te4,,P63/mmc,,,,7.274,,,,,BIN_000483,,,Binary_Chalcogenide,7.031,,Cs3Te4,Cs:Te = 3:4,5.525,,,
Systematic_Generation,,,BeS,,P-3m1,,,,15.482,,,,,BIN_000484,,,Binary_Chalcogenide,7.81,,BeS,Be:S = 1:1,5.657,,,
Systematic_Generation,,,BeS2,,R-3m,,,,9.544,,,,,BIN_000485,,,Binary_Chalcogenide,6.168,,BeS2,Be:S = 1:2,5.077,,,
Systematic_Generation,,,Be2S3,,P-3m1,,,,6.101,,,,,BIN_000486,,,Binary_Chalcogenide,4.459,,Be2S3,Be:S = 2:3,5.834,,,
Systematic_Generation,,,Be3S4,,Fm-3m,,,,11.323,,,,,BIN_000487,,,Binary_Chalcogenide,6.401,,Be3S4,Be:S = 3:4,5.394,,,
Systematic_Generation,,,BeSe,,R-3m,,,,16.986,,,,,BIN_000488,,,Binary_Chalcogenide,6.857,,BeSe,Be:Se = 1:1,4.401,,,
Systematic_Generation,,,BeSe2,,P63/mmc,,,,16.832,,,,,BIN_000489,,,Binary_Chalcogenide,5.305,,BeSe2,Be:Se = 1:2,3.988,,,
Systematic_Generation,,,Be2Se3,,R-3m,,,,11.347,,,,,BIN_000490,,,Binary_Chalcogenide,5.355,,Be2Se3,Be:Se = 2:3,7.578,,,
Systematic_Generation,,,Be3Se4,,R-3m,,,,14.146,,,,,BIN_000491,,,Binary_Chalcogenide,3.869,,Be3Se4,Be:Se = 3:4,5.296,,,
Systematic_Generation,,,BeTe,,P63/mmc,,,,13.535,,,,,BIN_000492,,,Binary_Chalcogenide,3.524,,BeTe,Be:Te = 1:1,3.672,,,
Systematic_Generation,,,BeTe2,,P-3m1,,,,15.997,,,,,BIN_000493,,,Binary_Chalcogenide,7.918,,BeTe2,Be:Te = 1:2,6.853,,,
Systematic_Generation,,,Be2Te3,,P-3m1,,,,14.05,,,,,BIN_000494,,,Binary_Chalcogenide,7.159,,Be2Te3,Be:Te = 2:3,7.501,,,
Systematic_Generation,,,Be3Te4,,P63/mmc,,,,8.468,,,,,BIN_000495,,,Binary_Chalcogenide,7.689,,Be3Te4,Be:Te = 3:4,4.983,,,
Systematic_Generation,,,MgS,,P-3m1,,,,18.005,,,,,BIN_000496,,,Binary_Chalcogenide,7.604,,MgS,Mg:S = 1:1,6.509,,,
Systematic_Generation,,,MgS2,,P63/mmc,,,,10.384,,,,,BIN_000497,,,Binary_Chalcogenide,6.92,,MgS2,Mg:S = 1:2,6.27,,,
Systematic_Generation,,,Mg2S3,,P63/mmc,,,,15.37,,,,,BIN_000498,,,Binary_Chalcogenide,6.82,,Mg2S3,Mg:S = 2:3,7.564,,,
Systematic_Generation,,,Mg3S4,,Fm-3m,,,,6.512,,,,,BIN_000499,,,Binary_Chalcogenide,3.767,,Mg3S4,Mg:S = 3:4,3.861,,,
Systematic_Generation,,,MgSe,,P-3m1,,,,7.576,,,,,BIN_000500,,,Binary_Chalcogenide,6.399,,MgSe,Mg:Se = 1:1,7.204,,,
Systematic_Generation,,,MgSe2,,R-3m,,,,6.676,,,,,BIN_000501,,,Binary_Chalcogenide,6.132,,MgSe2,Mg:Se = 1:2,3.846,,,
Systematic_Generation,,,Mg2Se3,,P-3m1,,,,7.054,,,,,BIN_000502,,,Binary_Chalcogenide,4.701,,Mg2Se3,Mg:Se = 2:3,4.703,,,
Systematic_Generation,,,Mg3Se4,,R-3m,,,,10.921,,,,,BIN_000503,,,Binary_Chalcogenide,4.576,,Mg3Se4,Mg:Se = 3:4,7.598,,,
Systematic_Generation,,,MgTe,,P-3m1,,,,18.741,,,,,BIN_000504,,,Binary_Chalcogenide,7.286,,MgTe,Mg:Te = 1:1,4.92,,,
Systematic_Generation,,,MgTe2,,P63/mmc,,,,8.686,,,,,BIN_000505,,,Binary_Chalcogenide,3.77,,MgTe2,Mg:Te = 1:2,4.592,,,
Systematic_Generation,,,Mg2Te3,,P-3m1,,,,14.784,,,,,BIN_000506,,,Binary_Chalcogenide,4.384,,Mg2Te3,Mg:Te = 2:3,3.719,,,
Systematic_Generation,,,Mg3Te4,,P-3m1,,,,14.889,,,,,BIN_000507,,,Binary_Chalcogenide,3.915,,Mg3Te4,Mg:Te = 3:4,7.544,,,
Systematic_Generation,,,CaS,,R-3m,,,,12.257,,,,,BIN_000508,,,Binary_Chalcogenide,6.427,,CaS,Ca:S = 1:1,6.262,,,
Systematic_Generation,,,CaS2,,P63/mmc,,,,18.139,,,,,BIN_000509,,,Binary_Chalcogenide,7.214,,CaS2,Ca:S = 1:2,5.287,,,
Systematic_Generation,,,Ca2S3,,Fm-3m,,,,5.903,,,,,BIN_000510,,,Binary_Chalcogenide,5.54,,Ca2S3,Ca:S = 2:3,6.935,,,
Systematic_Generation,,,Ca3S4,,Fm-3m,,,,8.933,,,,,BIN_000511,,,Binary_Chalcogenide,5.884,,Ca3S4,Ca:S = 3:4,4.473,,,
Systematic_Generation,,,CaSe,,Fm-3m,,,,14.914,,,,,BIN_000512,,,Binary_Chalcogenide,6.891,,CaSe,Ca:Se = 1:1,4.515,,,
Systematic_Generation,,,CaSe2,,R-3m,,,,9.328,,,,,BIN_000513,,,Binary_Chalcogenide,6.849,,CaSe2,Ca:Se = 1:2,5.117,,,
Systematic_Generation,,,Ca2Se3,,P-3m1,,,,10.083,,,,,BIN_000514,,,Binary_Chalcogenide,7.514,,Ca2Se3,Ca:Se = 2:3,4.706,,,
Systematic_Generation,,,Ca3Se4,,R-3m,,,,12.171,,,,,BIN_000515,,,Binary_Chalcogenide,3.866,,Ca3Se4,Ca:Se = 3:4,5.065,,,
Systematic_Generation,,,CaTe,,P63/mmc,,,,19.365,,,,,BIN_000516,,,Binary_Chalcogenide,4.907,,CaTe,Ca:Te = 1:1,6.893,,,
Systematic_Generation,,,CaTe2,,Fm-3m,,,,5.972,,,,,BIN_000517,,,Binary_Chalcogenide,4.228,,CaTe2,Ca:Te = 1:2,6.502,,,
Systematic_Generation,,,Ca2Te3,,P63/mmc,,,,8.586,,,,,BIN_000518,,,Binary_Chalcogenide,6.25,,Ca2Te3,Ca:Te = 2:3,4.069,,,
Systematic_Generation,,,Ca3Te4,,R-3m,,,,17.581,,,,,BIN_000519,,,Binary_Chalcogenide,7.686,,Ca3Te4,Ca:Te = 3:4,5.074,,,
Systematic_Generation,,,SrS,,P63/mmc,,,,6.889,,,,,BIN_000520,,,Binary_Chalcogenide,5.138,,SrS,Sr:S = 1:1,7.739,,,
Systematic_Generation,,,SrS2,,R-3m,,,,6.408,,,,,BIN_000521,,,Binary_Chalcogenide,4.229,,SrS2,Sr:S = 1:2,5.877,,,
Systematic_Generation,,,Sr2S3,,R-3m,,,,15.806,,,,,BIN_000522,,,Binary_Chalcogenide,4.563,,Sr2S3,Sr:S = 2:3,4.541,,,
Systematic_Generation,,,Sr3S4,,R-3m,,,,16.069,,,,,BIN_000523,,,Binary_Chalcogenide,3.621,,Sr3S4,Sr:S = 3:4,4.158,,,
Systematic_Generation,,,SrSe,,P-3m1,,,,5.013,,,,,BIN_000524,,,Binary_Chalcogenide,7.197,,SrSe,Sr:Se = 1:1,4.266,,,
Systematic_Generation,,,SrSe2,,R-3m,,,,6.61,,,,,BIN_000525,,,Binary_Chalcogenide,6.312,,SrSe2,Sr:Se = 1:2,5.786,,,
Systematic_Generation,,,Sr2Se3,,P-3m1,,,,14.277,,,,,BIN_000526,,,Binary_Chalcogenide,6.694,,Sr2Se3,Sr:Se = 2:3,4.031,,,
Systematic_Generation,,,Sr3Se4,,R-3m,,,,7.502,,,,,BIN_000527,,,Binary_Chalcogenide,6.688,,Sr3Se4,Sr:Se = 3:4,5.903,,,
Systematic_Generation,,,SrTe,,R-3m,,,,5.193,,,,,BIN_000528,,,Binary_Chalcogenide,4.81,,SrTe,Sr:Te = 1:1,4.313,,,
Systematic_Generation,,,SrTe2,,P63/mmc,,,,16.123,,,,,BIN_000529,,,Binary_Chalcogenide,6.156,,SrTe2,Sr:Te = 1:2,3.794,,,
Systematic_Generation,,,Sr2Te3,,Fm-3m,,,,13.146,,,,,BIN_000530,,,Binary_Chalcogenide,3.555,,Sr2Te3,Sr:Te = 2:3,6.005,,,
Systematic_Generation,,,Sr3Te4,,P63/mmc,,,,7.85,,,,,BIN_000531,,,Binary_Chalcogenide,5.938,,Sr3Te4,Sr:Te = 3:4,4.21,,,
Systematic_Generation,,,BaS,,P-3m1,,,,16.863,,,,,BIN_000532,,,Binary_Chalcogenide,4.419,,BaS,Ba:S = 1:1,6.041,,,
Systematic_Generation,,,BaS2,,Fm-3m,,,,14.797,,,,,BIN_000533,,,Binary_Chalcogenide,6.027,,BaS2,Ba:S = 1:2,6.984,,,
Systematic_Generation,,,Ba2S3,,P63/mmc,,,,5.883,,,,,BIN_000534,,,Binary_Chalcogenide,7.385,,Ba2S3,Ba:S = 2:3,5.636,,,
Systematic_Generation,,,Ba3S4,,Fm-3m,,,,19.681,,,,,BIN_000535,,,Binary_Chalcogenide,3.861,,Ba3S4,Ba:S = 3:4,3.883,,,
Systematic_Generation,,,BaSe,,Fm-3m,,,,16.372,,,,,BIN_000536,,,Binary_Chalcogenide,6.207,,BaSe,Ba:Se = 1:1,3.725,,,
Systematic_Generation,,,BaSe2,,P-3m1,,,,10.384,,,,,BIN_000537,,,Binary_Chalcogenide,5.467,,BaSe2,Ba:Se = 1:2,6.288,,,
Systematic_Generation,,,Ba2Se3,,Fm-3m,,,,10.25,,,,,BIN_000538,,,Binary_Chalcogenide,7.078,,Ba2Se3,Ba:Se = 2:3,4.06,,,
Systematic_Generation,,,Ba3Se4,,P63/mmc,,,,5.954,,,,,BIN_000539,,,Binary_Chalcogenide,6.632,,Ba3Se4,Ba:Se = 3:4,5.511,,,