source,n_elements,doping_concentration,name,termination,space_group,doping_level,volume_fraction,weight_percent,lattice_c,temperature,reinforcement,matrix,layers,material_id,molecular_weight,deposition_method,type,lattice_b,pdi,formula,composition,lattice_a,thickness_nm,dopant,substrate
Systematic_Generation,,1e+20,ZnO:Te_1.0e+20,,Inherited,,,,,,,,,DOPED_004792,,,Doped_Semiconductor,,,ZnO_Te,ZnO + Te @ 1.0e+20 cm^-3,,,Te,
Systematic_Generation,,1e+21,ZnO:Te_1.0e+21,,Inherited,,,,,,,,,DOPED_004793,,,Doped_Semiconductor,,,ZnO_Te,ZnO + Te @ 1.0e+21 cm^-3,,,Te,
Systematic_Generation,,1000000000000000.0,ZnS:B_1.0e+15,,Inherited,,,,,,,,,DOPED_004794,,,Doped_Semiconductor,,,ZnS_B,ZnS + B @ 1.0e+15 cm^-3,,,B,
Systematic_Generation,,5000000000000000.0,ZnS:B_5.0e+15,,Inherited,,,,,,,,,DOPED_004795,,,Doped_Semiconductor,,,ZnS_B,ZnS + B @ 5.0e+15 cm^-3,,,B,
Systematic_Generation,,1e+16,ZnS:B_1.0e+16,,Inherited,,,,,,,,,DOPED_004796,,,Doped_Semiconductor,,,ZnS_B,ZnS + B @ 1.0e+16 cm^-3,,,B,
Systematic_Generation,,5e+16,ZnS:B_5.0e+16,,Inherited,,,,,,,,,DOPED_004797,,,Doped_Semiconductor,,,ZnS_B,ZnS + B @ 5.0e+16 cm^-3,,,B,
Systematic_Generation,,1e+17,ZnS:B_1.0e+17,,Inherited,,,,,,,,,DOPED_004798,,,Doped_Semiconductor,,,ZnS_B,ZnS + B @ 1.0e+17 cm^-3,,,B,
Systematic_Generation,,5e+17,ZnS:B_5.0e+17,,Inherited,,,,,,,,,DOPED_004799,,,Doped_Semiconductor,,,ZnS_B,ZnS + B @ 5.0e+17 cm^-3,,,B,
Systematic_Generation,,1e+18,ZnS:B_1.0e+18,,Inherited,,,,,,,,,DOPED_004800,,,Doped_Semiconductor,,,ZnS_B,ZnS + B @ 1.0e+18 cm^-3,,,B,
Systematic_Generation,,5e+18,ZnS:B_5.0e+18,,Inherited,,,,,,,,,DOPED_004801,,,Doped_Semiconductor,,,ZnS_B,ZnS + B @ 5.0e+18 cm^-3,,,B,
Systematic_Generation,,1e+19,ZnS:B_1.0e+19,,Inherited,,,,,,,,,DOPED_004802,,,Doped_Semiconductor,,,ZnS_B,ZnS + B @ 1.0e+19 cm^-3,,,B,
Systematic_Generation,,5e+19,ZnS:B_5.0e+19,,Inherited,,,,,,,,,DOPED_004803,,,Doped_Semiconductor,,,ZnS_B,ZnS + B @ 5.0e+19 cm^-3,,,B,
Systematic_Generation,,1e+20,ZnS:B_1.0e+20,,Inherited,,,,,,,,,DOPED_004804,,,Doped_Semiconductor,,,ZnS_B,ZnS + B @ 1.0e+20 cm^-3,,,B,
Systematic_Generation,,1e+21,ZnS:B_1.0e+21,,Inherited,,,,,,,,,DOPED_004805,,,Doped_Semiconductor,,,ZnS_B,ZnS + B @ 1.0e+21 cm^-3,,,B,
Systematic_Generation,,1000000000000000.0,ZnS:P_1.0e+15,,Inherited,,,,,,,,,DOPED_004806,,,Doped_Semiconductor,,,ZnS_P,ZnS + P @ 1.0e+15 cm^-3,,,P,
Systematic_Generation,,5000000000000000.0,ZnS:P_5.0e+15,,Inherited,,,,,,,,,DOPED_004807,,,Doped_Semiconductor,,,ZnS_P,ZnS + P @ 5.0e+15 cm^-3,,,P,
Systematic_Generation,,1e+16,ZnS:P_1.0e+16,,Inherited,,,,,,,,,DOPED_004808,,,Doped_Semiconductor,,,ZnS_P,ZnS + P @ 1.0e+16 cm^-3,,,P,
Systematic_Generation,,5e+16,ZnS:P_5.0e+16,,Inherited,,,,,,,,,DOPED_004809,,,Doped_Semiconductor,,,ZnS_P,ZnS + P @ 5.0e+16 cm^-3,,,P,
Systematic_Generation,,1e+17,ZnS:P_1.0e+17,,Inherited,,,,,,,,,DOPED_004810,,,Doped_Semiconductor,,,ZnS_P,ZnS + P @ 1.0e+17 cm^-3,,,P,
Systematic_Generation,,5e+17,ZnS:P_5.0e+17,,Inherited,,,,,,,,,DOPED_004811,,,Doped_Semiconductor,,,ZnS_P,ZnS + P @ 5.0e+17 cm^-3,,,P,
Systematic_Generation,,1e+18,ZnS:P_1.0e+18,,Inherited,,,,,,,,,DOPED_004812,,,Doped_Semiconductor,,,ZnS_P,ZnS + P @ 1.0e+18 cm^-3,,,P,
Systematic_Generation,,5e+18,ZnS:P_5.0e+18,,Inherited,,,,,,,,,DOPED_004813,,,Doped_Semiconductor,,,ZnS_P,ZnS + P @ 5.0e+18 cm^-3,,,P,
Systematic_Generation,,1e+19,ZnS:P_1.0e+19,,Inherited,,,,,,,,,DOPED_004814,,,Doped_Semiconductor,,,ZnS_P,ZnS + P @ 1.0e+19 cm^-3,,,P,
Systematic_Generation,,5e+19,ZnS:P_5.0e+19,,Inherited,,,,,,,,,DOPED_004815,,,Doped_Semiconductor,,,ZnS_P,ZnS + P @ 5.0e+19 cm^-3,,,P,
Systematic_Generation,,1e+20,ZnS:P_1.0e+20,,Inherited,,,,,,,,,DOPED_004816,,,Doped_Semiconductor,,,ZnS_P,ZnS + P @ 1.0e+20 cm^-3,,,P,
Systematic_Generation,,1e+21,ZnS:P_1.0e+21,,Inherited,,,,,,,,,DOPED_004817,,,Doped_Semiconductor,,,ZnS_P,ZnS + P @ 1.0e+21 cm^-3,,,P,
Systematic_Generation,,1000000000000000.0,ZnS:As_1.0e+15,,Inherited,,,,,,,,,DOPED_004818,,,Doped_Semiconductor,,,ZnS_As,ZnS + As @ 1.0e+15 cm^-3,,,As,
Systematic_Generation,,5000000000000000.0,ZnS:As_5.0e+15,,Inherited,,,,,,,,,DOPED_004819,,,Doped_Semiconductor,,,ZnS_As,ZnS + As @ 5.0e+15 cm^-3,,,As,
Systematic_Generation,,1e+16,ZnS:As_1.0e+16,,Inherited,,,,,,,,,DOPED_004820,,,Doped_Semiconductor,,,ZnS_As,ZnS + As @ 1.0e+16 cm^-3,,,As,
Systematic_Generation,,5e+16,ZnS:As_5.0e+16,,Inherited,,,,,,,,,DOPED_004821,,,Doped_Semiconductor,,,ZnS_As,ZnS + As @ 5.0e+16 cm^-3,,,As,
Systematic_Generation,,1e+17,ZnS:As_1.0e+17,,Inherited,,,,,,,,,DOPED_004822,,,Doped_Semiconductor,,,ZnS_As,ZnS + As @ 1.0e+17 cm^-3,,,As,
Systematic_Generation,,5e+17,ZnS:As_5.0e+17,,Inherited,,,,,,,,,DOPED_004823,,,Doped_Semiconductor,,,ZnS_As,ZnS + As @ 5.0e+17 cm^-3,,,As,
Systematic_Generation,,1e+18,ZnS:As_1.0e+18,,Inherited,,,,,,,,,DOPED_004824,,,Doped_Semiconductor,,,ZnS_As,ZnS + As @ 1.0e+18 cm^-3,,,As,
Systematic_Generation,,5e+18,ZnS:As_5.0e+18,,Inherited,,,,,,,,,DOPED_004825,,,Doped_Semiconductor,,,ZnS_As,ZnS + As @ 5.0e+18 cm^-3,,,As,
Systematic_Generation,,1e+19,ZnS:As_1.0e+19,,Inherited,,,,,,,,,DOPED_004826,,,Doped_Semiconductor,,,ZnS_As,ZnS + As @ 1.0e+19 cm^-3,,,As,
Systematic_Generation,,5e+19,ZnS:As_5.0e+19,,Inherited,,,,,,,,,DOPED_004827,,,Doped_Semiconductor,,,ZnS_As,ZnS + As @ 5.0e+19 cm^-3,,,As,
Systematic_Generation,,1e+20,ZnS:As_1.0e+20,,Inherited,,,,,,,,,DOPED_004828,,,Doped_Semiconductor,,,ZnS_As,ZnS + As @ 1.0e+20 cm^-3,,,As,
Systematic_Generation,,1e+21,ZnS:As_1.0e+21,,Inherited,,,,,,,,,DOPED_004829,,,Doped_Semiconductor,,,ZnS_As,ZnS + As @ 1.0e+21 cm^-3,,,As,
Systematic_Generation,,1000000000000000.0,ZnS:Sb_1.0e+15,,Inherited,,,,,,,,,DOPED_004830,,,Doped_Semiconductor,,,ZnS_Sb,ZnS + Sb @ 1.0e+15 cm^-3,,,Sb,
Systematic_Generation,,5000000000000000.0,ZnS:Sb_5.0e+15,,Inherited,,,,,,,,,DOPED_004831,,,Doped_Semiconductor,,,ZnS_Sb,ZnS + Sb @ 5.0e+15 cm^-3,,,Sb,
Systematic_Generation,,1e+16,ZnS:Sb_1.0e+16,,Inherited,,,,,,,,,DOPED_004832,,,Doped_Semiconductor,,,ZnS_Sb,ZnS + Sb @ 1.0e+16 cm^-3,,,Sb,
Systematic_Generation,,5e+16,ZnS:Sb_5.0e+16,,Inherited,,,,,,,,,DOPED_004833,,,Doped_Semiconductor,,,ZnS_Sb,ZnS + Sb @ 5.0e+16 cm^-3,,,Sb,
Systematic_Generation,,1e+17,ZnS:Sb_1.0e+17,,Inherited,,,,,,,,,DOPED_004834,,,Doped_Semiconductor,,,ZnS_Sb,ZnS + Sb @ 1.0e+17 cm^-3,,,Sb,
Systematic_Generation,,5e+17,ZnS:Sb_5.0e+17,,Inherited,,,,,,,,,DOPED_004835,,,Doped_Semiconductor,,,ZnS_Sb,ZnS + Sb @ 5.0e+17 cm^-3,,,Sb,
Systematic_Generation,,1e+18,ZnS:Sb_1.0e+18,,Inherited,,,,,,,,,DOPED_004836,,,Doped_Semiconductor,,,ZnS_Sb,ZnS + Sb @ 1.0e+18 cm^-3,,,Sb,
Systematic_Generation,,5e+18,ZnS:Sb_5.0e+18,,Inherited,,,,,,,,,DOPED_004837,,,Doped_Semiconductor,,,ZnS_Sb,ZnS + Sb @ 5.0e+18 cm^-3,,,Sb,
Systematic_Generation,,1e+19,ZnS:Sb_1.0e+19,,Inherited,,,,,,,,,DOPED_004838,,,Doped_Semiconductor,,,ZnS_Sb,ZnS + Sb @ 1.0e+19 cm^-3,,,Sb,
Systematic_Generation,,5e+19,ZnS:Sb_5.0e+19,,Inherited,,,,,,,,,DOPED_004839,,,Doped_Semiconductor,,,ZnS_Sb,ZnS + Sb @ 5.0e+19 cm^-3,,,Sb,
Systematic_Generation,,1e+20,ZnS:Sb_1.0e+20,,Inherited,,,,,,,,,DOPED_004840,,,Doped_Semiconductor,,,ZnS_Sb,ZnS + Sb @ 1.0e+20 cm^-3,,,Sb,
Systematic_Generation,,1e+21,ZnS:Sb_1.0e+21,,Inherited,,,,,,,,,DOPED_004841,,,Doped_Semiconductor,,,ZnS_Sb,ZnS + Sb @ 1.0e+21 cm^-3,,,Sb,
Systematic_Generation,,1000000000000000.0,ZnS:N_1.0e+15,,Inherited,,,,,,,,,DOPED_004842,,,Doped_Semiconductor,,,ZnS_N,ZnS + N @ 1.0e+15 cm^-3,,,N,
Systematic_Generation,,5000000000000000.0,ZnS:N_5.0e+15,,Inherited,,,,,,,,,DOPED_004843,,,Doped_Semiconductor,,,ZnS_N,ZnS + N @ 5.0e+15 cm^-3,,,N,
Systematic_Generation,,1e+16,ZnS:N_1.0e+16,,Inherited,,,,,,,,,DOPED_004844,,,Doped_Semiconductor,,,ZnS_N,ZnS + N @ 1.0e+16 cm^-3,,,N,
Systematic_Generation,,5e+16,ZnS:N_5.0e+16,,Inherited,,,,,,,,,DOPED_004845,,,Doped_Semiconductor,,,ZnS_N,ZnS + N @ 5.0e+16 cm^-3,,,N,
Systematic_Generation,,1e+17,ZnS:N_1.0e+17,,Inherited,,,,,,,,,DOPED_004846,,,Doped_Semiconductor,,,ZnS_N,ZnS + N @ 1.0e+17 cm^-3,,,N,
Systematic_Generation,,5e+17,ZnS:N_5.0e+17,,Inherited,,,,,,,,,DOPED_004847,,,Doped_Semiconductor,,,ZnS_N,ZnS + N @ 5.0e+17 cm^-3,,,N,
Systematic_Generation,,1e+18,ZnS:N_1.0e+18,,Inherited,,,,,,,,,DOPED_004848,,,Doped_Semiconductor,,,ZnS_N,ZnS + N @ 1.0e+18 cm^-3,,,N,
Systematic_Generation,,5e+18,ZnS:N_5.0e+18,,Inherited,,,,,,,,,DOPED_004849,,,Doped_Semiconductor,,,ZnS_N,ZnS + N @ 5.0e+18 cm^-3,,,N,
Systematic_Generation,,1e+19,ZnS:N_1.0e+19,,Inherited,,,,,,,,,DOPED_004850,,,Doped_Semiconductor,,,ZnS_N,ZnS + N @ 1.0e+19 cm^-3,,,N,
Systematic_Generation,,5e+19,ZnS:N_5.0e+19,,Inherited,,,,,,,,,DOPED_004851,,,Doped_Semiconductor,,,ZnS_N,ZnS + N @ 5.0e+19 cm^-3,,,N,
Systematic_Generation,,1e+20,ZnS:N_1.0e+20,,Inherited,,,,,,,,,DOPED_004852,,,Doped_Semiconductor,,,ZnS_N,ZnS + N @ 1.0e+20 cm^-3,,,N,
Systematic_Generation,,1e+21,ZnS:N_1.0e+21,,Inherited,,,,,,,,,DOPED_004853,,,Doped_Semiconductor,,,ZnS_N,ZnS + N @ 1.0e+21 cm^-3,,,N,
Systematic_Generation,,1000000000000000.0,ZnS:Al_1.0e+15,,Inherited,,,,,,,,,DOPED_004854,,,Doped_Semiconductor,,,ZnS_Al,ZnS + Al @ 1.0e+15 cm^-3,,,Al,
Systematic_Generation,,5000000000000000.0,ZnS:Al_5.0e+15,,Inherited,,,,,,,,,DOPED_004855,,,Doped_Semiconductor,,,ZnS_Al,ZnS + Al @ 5.0e+15 cm^-3,,,Al,
Systematic_Generation,,1e+16,ZnS:Al_1.0e+16,,Inherited,,,,,,,,,DOPED_004856,,,Doped_Semiconductor,,,ZnS_Al,ZnS + Al @ 1.0e+16 cm^-3,,,Al,
Systematic_Generation,,5e+16,ZnS:Al_5.0e+16,,Inherited,,,,,,,,,DOPED_004857,,,Doped_Semiconductor,,,ZnS_Al,ZnS + Al @ 5.0e+16 cm^-3,,,Al,
Systematic_Generation,,1e+17,ZnS:Al_1.0e+17,,Inherited,,,,,,,,,DOPED_004858,,,Doped_Semiconductor,,,ZnS_Al,ZnS + Al @ 1.0e+17 cm^-3,,,Al,
Systematic_Generation,,5e+17,ZnS:Al_5.0e+17,,Inherited,,,,,,,,,DOPED_004859,,,Doped_Semiconductor,,,ZnS_Al,ZnS + Al @ 5.0e+17 cm^-3,,,Al,
Systematic_Generation,,1e+18,ZnS:Al_1.0e+18,,Inherited,,,,,,,,,DOPED_004860,,,Doped_Semiconductor,,,ZnS_Al,ZnS + Al @ 1.0e+18 cm^-3,,,Al,
Systematic_Generation,,5e+18,ZnS:Al_5.0e+18,,Inherited,,,,,,,,,DOPED_004861,,,Doped_Semiconductor,,,ZnS_Al,ZnS + Al @ 5.0e+18 cm^-3,,,Al,
Systematic_Generation,,1e+19,ZnS:Al_1.0e+19,,Inherited,,,,,,,,,DOPED_004862,,,Doped_Semiconductor,,,ZnS_Al,ZnS + Al @ 1.0e+19 cm^-3,,,Al,
Systematic_Generation,,5e+19,ZnS:Al_5.0e+19,,Inherited,,,,,,,,,DOPED_004863,,,Doped_Semiconductor,,,ZnS_Al,ZnS + Al @ 5.0e+19 cm^-3,,,Al,
Systematic_Generation,,1e+20,ZnS:Al_1.0e+20,,Inherited,,,,,,,,,DOPED_004864,,,Doped_Semiconductor,,,ZnS_Al,ZnS + Al @ 1.0e+20 cm^-3,,,Al,
Systematic_Generation,,1e+21,ZnS:Al_1.0e+21,,Inherited,,,,,,,,,DOPED_004865,,,Doped_Semiconductor,,,ZnS_Al,ZnS + Al @ 1.0e+21 cm^-3,,,Al,
Systematic_Generation,,1000000000000000.0,ZnS:Ga_1.0e+15,,Inherited,,,,,,,,,DOPED_004866,,,Doped_Semiconductor,,,ZnS_Ga,ZnS + Ga @ 1.0e+15 cm^-3,,,Ga,
Systematic_Generation,,5000000000000000.0,ZnS:Ga_5.0e+15,,Inherited,,,,,,,,,DOPED_004867,,,Doped_Semiconductor,,,ZnS_Ga,ZnS + Ga @ 5.0e+15 cm^-3,,,Ga,
Systematic_Generation,,1e+16,ZnS:Ga_1.0e+16,,Inherited,,,,,,,,,DOPED_004868,,,Doped_Semiconductor,,,ZnS_Ga,ZnS + Ga @ 1.0e+16 cm^-3,,,Ga,
Systematic_Generation,,5e+16,ZnS:Ga_5.0e+16,,Inherited,,,,,,,,,DOPED_004869,,,Doped_Semiconductor,,,ZnS_Ga,ZnS + Ga @ 5.0e+16 cm^-3,,,Ga,
Systematic_Generation,,1e+17,ZnS:Ga_1.0e+17,,Inherited,,,,,,,,,DOPED_004870,,,Doped_Semiconductor,,,ZnS_Ga,ZnS + Ga @ 1.0e+17 cm^-3,,,Ga,
Systematic_Generation,,5e+17,ZnS:Ga_5.0e+17,,Inherited,,,,,,,,,DOPED_004871,,,Doped_Semiconductor,,,ZnS_Ga,ZnS + Ga @ 5.0e+17 cm^-3,,,Ga,
Systematic_Generation,,1e+18,ZnS:Ga_1.0e+18,,Inherited,,,,,,,,,DOPED_004872,,,Doped_Semiconductor,,,ZnS_Ga,ZnS + Ga @ 1.0e+18 cm^-3,,,Ga,
Systematic_Generation,,5e+18,ZnS:Ga_5.0e+18,,Inherited,,,,,,,,,DOPED_004873,,,Doped_Semiconductor,,,ZnS_Ga,ZnS + Ga @ 5.0e+18 cm^-3,,,Ga,
Systematic_Generation,,1e+19,ZnS:Ga_1.0e+19,,Inherited,,,,,,,,,DOPED_004874,,,Doped_Semiconductor,,,ZnS_Ga,ZnS + Ga @ 1.0e+19 cm^-3,,,Ga,
Systematic_Generation,,5e+19,ZnS:Ga_5.0e+19,,Inherited,,,,,,,,,DOPED_004875,,,Doped_Semiconductor,,,ZnS_Ga,ZnS + Ga @ 5.0e+19 cm^-3,,,Ga,
Systematic_Generation,,1e+20,ZnS:Ga_1.0e+20,,Inherited,,,,,,,,,DOPED_004876,,,Doped_Semiconductor,,,ZnS_Ga,ZnS + Ga @ 1.0e+20 cm^-3,,,Ga,
Systematic_Generation,,1e+21,ZnS:Ga_1.0e+21,,Inherited,,,,,,,,,DOPED_004877,,,Doped_Semiconductor,,,ZnS_Ga,ZnS + Ga @ 1.0e+21 cm^-3,,,Ga,
Systematic_Generation,,1000000000000000.0,ZnS:In_1.0e+15,,Inherited,,,,,,,,,DOPED_004878,,,Doped_Semiconductor,,,ZnS_In,ZnS + In @ 1.0e+15 cm^-3,,,In,
Systematic_Generation,,5000000000000000.0,ZnS:In_5.0e+15,,Inherited,,,,,,,,,DOPED_004879,,,Doped_Semiconductor,,,ZnS_In,ZnS + In @ 5.0e+15 cm^-3,,,In,
Systematic_Generation,,1e+16,ZnS:In_1.0e+16,,Inherited,,,,,,,,,DOPED_004880,,,Doped_Semiconductor,,,ZnS_In,ZnS + In @ 1.0e+16 cm^-3,,,In,
Systematic_Generation,,5e+16,ZnS:In_5.0e+16,,Inherited,,,,,,,,,DOPED_004881,,,Doped_Semiconductor,,,ZnS_In,ZnS + In @ 5.0e+16 cm^-3,,,In,
Systematic_Generation,,1e+17,ZnS:In_1.0e+17,,Inherited,,,,,,,,,DOPED_004882,,,Doped_Semiconductor,,,ZnS_In,ZnS + In @ 1.0e+17 cm^-3,,,In,
Systematic_Generation,,5e+17,ZnS:In_5.0e+17,,Inherited,,,,,,,,,DOPED_004883,,,Doped_Semiconductor,,,ZnS_In,ZnS + In @ 5.0e+17 cm^-3,,,In,
Systematic_Generation,,1e+18,ZnS:In_1.0e+18,,Inherited,,,,,,,,,DOPED_004884,,,Doped_Semiconductor,,,ZnS_In,ZnS + In @ 1.0e+18 cm^-3,,,In,
Systematic_Generation,,5e+18,ZnS:In_5.0e+18,,Inherited,,,,,,,,,DOPED_004885,,,Doped_Semiconductor,,,ZnS_In,ZnS + In @ 5.0e+18 cm^-3,,,In,
Systematic_Generation,,1e+19,ZnS:In_1.0e+19,,Inherited,,,,,,,,,DOPED_004886,,,Doped_Semiconductor,,,ZnS_In,ZnS + In @ 1.0e+19 cm^-3,,,In,
Systematic_Generation,,5e+19,ZnS:In_5.0e+19,,Inherited,,,,,,,,,DOPED_004887,,,Doped_Semiconductor,,,ZnS_In,ZnS + In @ 5.0e+19 cm^-3,,,In,
Systematic_Generation,,1e+20,ZnS:In_1.0e+20,,Inherited,,,,,,,,,DOPED_004888,,,Doped_Semiconductor,,,ZnS_In,ZnS + In @ 1.0e+20 cm^-3,,,In,
Systematic_Generation,,1e+21,ZnS:In_1.0e+21,,Inherited,,,,,,,,,DOPED_004889,,,Doped_Semiconductor,,,ZnS_In,ZnS + In @ 1.0e+21 cm^-3,,,In,
Systematic_Generation,,1000000000000000.0,ZnS:Bi_1.0e+15,,Inherited,,,,,,,,,DOPED_004890,,,Doped_Semiconductor,,,ZnS_Bi,ZnS + Bi @ 1.0e+15 cm^-3,,,Bi,
Systematic_Generation,,5000000000000000.0,ZnS:Bi_5.0e+15,,Inherited,,,,,,,,,DOPED_004891,,,Doped_Semiconductor,,,ZnS_Bi,ZnS + Bi @ 5.0e+15 cm^-3,,,Bi,
Systematic_Generation,,1e+16,ZnS:Bi_1.0e+16,,Inherited,,,,,,,,,DOPED_004892,,,Doped_Semiconductor,,,ZnS_Bi,ZnS + Bi @ 1.0e+16 cm^-3,,,Bi,
Systematic_Generation,,5e+16,ZnS:Bi_5.0e+16,,Inherited,,,,,,,,,DOPED_004893,,,Doped_Semiconductor,,,ZnS_Bi,ZnS + Bi @ 5.0e+16 cm^-3,,,Bi,
Systematic_Generation,,1e+17,ZnS:Bi_1.0e+17,,Inherited,,,,,,,,,DOPED_004894,,,Doped_Semiconductor,,,ZnS_Bi,ZnS + Bi @ 1.0e+17 cm^-3,,,Bi,
Systematic_Generation,,5e+17,ZnS:Bi_5.0e+17,,Inherited,,,,,,,,,DOPED_004895,,,Doped_Semiconductor,,,ZnS_Bi,ZnS + Bi @ 5.0e+17 cm^-3,,,Bi,
Systematic_Generation,,1e+18,ZnS:Bi_1.0e+18,,Inherited,,,,,,,,,DOPED_004896,,,Doped_Semiconductor,,,ZnS_Bi,ZnS + Bi @ 1.0e+18 cm^-3,,,Bi,
Systematic_Generation,,5e+18,ZnS:Bi_5.0e+18,,Inherited,,,,,,,,,DOPED_004897,,,Doped_Semiconductor,,,ZnS_Bi,ZnS + Bi @ 5.0e+18 cm^-3,,,Bi,
Systematic_Generation,,1e+19,ZnS:Bi_1.0e+19,,Inherited,,,,,,,,,DOPED_004898,,,Doped_Semiconductor,,,ZnS_Bi,ZnS + Bi @ 1.0e+19 cm^-3,,,Bi,
Systematic_Generation,,5e+19,ZnS:Bi_5.0e+19,,Inherited,,,,,,,,,DOPED_004899,,,Doped_Semiconductor,,,ZnS_Bi,ZnS + Bi @ 5.0e+19 cm^-3,,,Bi,
Systematic_Generation,,1e+20,ZnS:Bi_1.0e+20,,Inherited,,,,,,,,,DOPED_004900,,,Doped_Semiconductor,,,ZnS_Bi,ZnS + Bi @ 1.0e+20 cm^-3,,,Bi,
Systematic_Generation,,1e+21,ZnS:Bi_1.0e+21,,Inherited,,,,,,,,,DOPED_004901,,,Doped_Semiconductor,,,ZnS_Bi,ZnS + Bi @ 1.0e+21 cm^-3,,,Bi,
Systematic_Generation,,1000000000000000.0,ZnS:Li_1.0e+15,,Inherited,,,,,,,,,DOPED_004902,,,Doped_Semiconductor,,,ZnS_Li,ZnS + Li @ 1.0e+15 cm^-3,,,Li,
Systematic_Generation,,5000000000000000.0,ZnS:Li_5.0e+15,,Inherited,,,,,,,,,DOPED_004903,,,Doped_Semiconductor,,,ZnS_Li,ZnS + Li @ 5.0e+15 cm^-3,,,Li,
Systematic_Generation,,1e+16,ZnS:Li_1.0e+16,,Inherited,,,,,,,,,DOPED_004904,,,Doped_Semiconductor,,,ZnS_Li,ZnS + Li @ 1.0e+16 cm^-3,,,Li,
Systematic_Generation,,5e+16,ZnS:Li_5.0e+16,,Inherited,,,,,,,,,DOPED_004905,,,Doped_Semiconductor,,,ZnS_Li,ZnS + Li @ 5.0e+16 cm^-3,,,Li,
Systematic_Generation,,1e+17,ZnS:Li_1.0e+17,,Inherited,,,,,,,,,DOPED_004906,,,Doped_Semiconductor,,,ZnS_Li,ZnS + Li @ 1.0e+17 cm^-3,,,Li,
Systematic_Generation,,5e+17,ZnS:Li_5.0e+17,,Inherited,,,,,,,,,DOPED_004907,,,Doped_Semiconductor,,,ZnS_Li,ZnS + Li @ 5.0e+17 cm^-3,,,Li,
Systematic_Generation,,1e+18,ZnS:Li_1.0e+18,,Inherited,,,,,,,,,DOPED_004908,,,Doped_Semiconductor,,,ZnS_Li,ZnS + Li @ 1.0e+18 cm^-3,,,Li,
Systematic_Generation,,5e+18,ZnS:Li_5.0e+18,,Inherited,,,,,,,,,DOPED_004909,,,Doped_Semiconductor,,,ZnS_Li,ZnS + Li @ 5.0e+18 cm^-3,,,Li,
Systematic_Generation,,1e+19,ZnS:Li_1.0e+19,,Inherited,,,,,,,,,DOPED_004910,,,Doped_Semiconductor,,,ZnS_Li,ZnS + Li @ 1.0e+19 cm^-3,,,Li,
Systematic_Generation,,5e+19,ZnS:Li_5.0e+19,,Inherited,,,,,,,,,DOPED_004911,,,Doped_Semiconductor,,,ZnS_Li,ZnS + Li @ 5.0e+19 cm^-3,,,Li,
Systematic_Generation,,1e+20,ZnS:Li_1.0e+20,,Inherited,,,,,,,,,DOPED_004912,,,Doped_Semiconductor,,,ZnS_Li,ZnS + Li @ 1.0e+20 cm^-3,,,Li,
Systematic_Generation,,1e+21,ZnS:Li_1.0e+21,,Inherited,,,,,,,,,DOPED_004913,,,Doped_Semiconductor,,,ZnS_Li,ZnS + Li @ 1.0e+21 cm^-3,,,Li,
Systematic_Generation,,1000000000000000.0,ZnS:S_1.0e+15,,Inherited,,,,,,,,,DOPED_004914,,,Doped_Semiconductor,,,ZnS_S,ZnS + S @ 1.0e+15 cm^-3,,,S,
Systematic_Generation,,5000000000000000.0,ZnS:S_5.0e+15,,Inherited,,,,,,,,,DOPED_004915,,,Doped_Semiconductor,,,ZnS_S,ZnS + S @ 5.0e+15 cm^-3,,,S,
Systematic_Generation,,1e+16,ZnS:S_1.0e+16,,Inherited,,,,,,,,,DOPED_004916,,,Doped_Semiconductor,,,ZnS_S,ZnS + S @ 1.0e+16 cm^-3,,,S,
Systematic_Generation,,5e+16,ZnS:S_5.0e+16,,Inherited,,,,,,,,,DOPED_004917,,,Doped_Semiconductor,,,ZnS_S,ZnS + S @ 5.0e+16 cm^-3,,,S,
Systematic_Generation,,1e+17,ZnS:S_1.0e+17,,Inherited,,,,,,,,,DOPED_004918,,,Doped_Semiconductor,,,ZnS_S,ZnS + S @ 1.0e+17 cm^-3,,,S,
Systematic_Generation,,5e+17,ZnS:S_5.0e+17,,Inherited,,,,,,,,,DOPED_004919,,,Doped_Semiconductor,,,ZnS_S,ZnS + S @ 5.0e+17 cm^-3,,,S,
Systematic_Generation,,1e+18,ZnS:S_1.0e+18,,Inherited,,,,,,,,,DOPED_004920,,,Doped_Semiconductor,,,ZnS_S,ZnS + S @ 1.0e+18 cm^-3,,,S,
Systematic_Generation,,5e+18,ZnS:S_5.0e+18,,Inherited,,,,,,,,,DOPED_004921,,,Doped_Semiconductor,,,ZnS_S,ZnS + S @ 5.0e+18 cm^-3,,,S,
Systematic_Generation,,1e+19,ZnS:S_1.0e+19,,Inherited,,,,,,,,,DOPED_004922,,,Doped_Semiconductor,,,ZnS_S,ZnS + S @ 1.0e+19 cm^-3,,,S,
Systematic_Generation,,5e+19,ZnS:S_5.0e+19,,Inherited,,,,,,,,,DOPED_004923,,,Doped_Semiconductor,,,ZnS_S,ZnS + S @ 5.0e+19 cm^-3,,,S,
Systematic_Generation,,1e+20,ZnS:S_1.0e+20,,Inherited,,,,,,,,,DOPED_004924,,,Doped_Semiconductor,,,ZnS_S,ZnS + S @ 1.0e+20 cm^-3,,,S,
Systematic_Generation,,1e+21,ZnS:S_1.0e+21,,Inherited,,,,,,,,,DOPED_004925,,,Doped_Semiconductor,,,ZnS_S,ZnS + S @ 1.0e+21 cm^-3,,,S,
Systematic_Generation,,1000000000000000.0,ZnS:Se_1.0e+15,,Inherited,,,,,,,,,DOPED_004926,,,Doped_Semiconductor,,,ZnS_Se,ZnS + Se @ 1.0e+15 cm^-3,,,Se,
Systematic_Generation,,5000000000000000.0,ZnS:Se_5.0e+15,,Inherited,,,,,,,,,DOPED_004927,,,Doped_Semiconductor,,,ZnS_Se,ZnS + Se @ 5.0e+15 cm^-3,,,Se,
Systematic_Generation,,1e+16,ZnS:Se_1.0e+16,,Inherited,,,,,,,,,DOPED_004928,,,Doped_Semiconductor,,,ZnS_Se,ZnS + Se @ 1.0e+16 cm^-3,,,Se,
Systematic_Generation,,5e+16,ZnS:Se_5.0e+16,,Inherited,,,,,,,,,DOPED_004929,,,Doped_Semiconductor,,,ZnS_Se,ZnS + Se @ 5.0e+16 cm^-3,,,Se,
Systematic_Generation,,1e+17,ZnS:Se_1.0e+17,,Inherited,,,,,,,,,DOPED_004930,,,Doped_Semiconductor,,,ZnS_Se,ZnS + Se @ 1.0e+17 cm^-3,,,Se,
Systematic_Generation,,5e+17,ZnS:Se_5.0e+17,,Inherited,,,,,,,,,DOPED_004931,,,Doped_Semiconductor,,,ZnS_Se,ZnS + Se @ 5.0e+17 cm^-3,,,Se,
Systematic_Generation,,1e+18,ZnS:Se_1.0e+18,,Inherited,,,,,,,,,DOPED_004932,,,Doped_Semiconductor,,,ZnS_Se,ZnS + Se @ 1.0e+18 cm^-3,,,Se,