source,n_elements,doping_concentration,name,termination,space_group,doping_level,volume_fraction,weight_percent,lattice_c,temperature,reinforcement,matrix,layers,material_id,molecular_weight,deposition_method,type,lattice_b,pdi,formula,composition,lattice_a,thickness_nm,dopant,substrate
Systematic_Generation,,1e+21,Si:Sb_1.0e+21,,Inherited,,,,,,,,,DOPED_002969,,,Doped_Semiconductor,,,Si_Sb,Si + Sb @ 1.0e+21 cm^-3,,,Sb,
Systematic_Generation,,1000000000000000.0,Si:N_1.0e+15,,Inherited,,,,,,,,,DOPED_002970,,,Doped_Semiconductor,,,Si_N,Si + N @ 1.0e+15 cm^-3,,,N,
Systematic_Generation,,5000000000000000.0,Si:N_5.0e+15,,Inherited,,,,,,,,,DOPED_002971,,,Doped_Semiconductor,,,Si_N,Si + N @ 5.0e+15 cm^-3,,,N,
Systematic_Generation,,1e+16,Si:N_1.0e+16,,Inherited,,,,,,,,,DOPED_002972,,,Doped_Semiconductor,,,Si_N,Si + N @ 1.0e+16 cm^-3,,,N,
Systematic_Generation,,5e+16,Si:N_5.0e+16,,Inherited,,,,,,,,,DOPED_002973,,,Doped_Semiconductor,,,Si_N,Si + N @ 5.0e+16 cm^-3,,,N,
Systematic_Generation,,1e+17,Si:N_1.0e+17,,Inherited,,,,,,,,,DOPED_002974,,,Doped_Semiconductor,,,Si_N,Si + N @ 1.0e+17 cm^-3,,,N,
Systematic_Generation,,5e+17,Si:N_5.0e+17,,Inherited,,,,,,,,,DOPED_002975,,,Doped_Semiconductor,,,Si_N,Si + N @ 5.0e+17 cm^-3,,,N,
Systematic_Generation,,1e+18,Si:N_1.0e+18,,Inherited,,,,,,,,,DOPED_002976,,,Doped_Semiconductor,,,Si_N,Si + N @ 1.0e+18 cm^-3,,,N,
Systematic_Generation,,5e+18,Si:N_5.0e+18,,Inherited,,,,,,,,,DOPED_002977,,,Doped_Semiconductor,,,Si_N,Si + N @ 5.0e+18 cm^-3,,,N,
Systematic_Generation,,1e+19,Si:N_1.0e+19,,Inherited,,,,,,,,,DOPED_002978,,,Doped_Semiconductor,,,Si_N,Si + N @ 1.0e+19 cm^-3,,,N,
Systematic_Generation,,5e+19,Si:N_5.0e+19,,Inherited,,,,,,,,,DOPED_002979,,,Doped_Semiconductor,,,Si_N,Si + N @ 5.0e+19 cm^-3,,,N,
Systematic_Generation,,1e+20,Si:N_1.0e+20,,Inherited,,,,,,,,,DOPED_002980,,,Doped_Semiconductor,,,Si_N,Si + N @ 1.0e+20 cm^-3,,,N,
Systematic_Generation,,1e+21,Si:N_1.0e+21,,Inherited,,,,,,,,,DOPED_002981,,,Doped_Semiconductor,,,Si_N,Si + N @ 1.0e+21 cm^-3,,,N,
Systematic_Generation,,1000000000000000.0,Si:Al_1.0e+15,,Inherited,,,,,,,,,DOPED_002982,,,Doped_Semiconductor,,,Si_Al,Si + Al @ 1.0e+15 cm^-3,,,Al,
Systematic_Generation,,5000000000000000.0,Si:Al_5.0e+15,,Inherited,,,,,,,,,DOPED_002983,,,Doped_Semiconductor,,,Si_Al,Si + Al @ 5.0e+15 cm^-3,,,Al,
Systematic_Generation,,1e+16,Si:Al_1.0e+16,,Inherited,,,,,,,,,DOPED_002984,,,Doped_Semiconductor,,,Si_Al,Si + Al @ 1.0e+16 cm^-3,,,Al,
Systematic_Generation,,5e+16,Si:Al_5.0e+16,,Inherited,,,,,,,,,DOPED_002985,,,Doped_Semiconductor,,,Si_Al,Si + Al @ 5.0e+16 cm^-3,,,Al,
Systematic_Generation,,1e+17,Si:Al_1.0e+17,,Inherited,,,,,,,,,DOPED_002986,,,Doped_Semiconductor,,,Si_Al,Si + Al @ 1.0e+17 cm^-3,,,Al,
Systematic_Generation,,5e+17,Si:Al_5.0e+17,,Inherited,,,,,,,,,DOPED_002987,,,Doped_Semiconductor,,,Si_Al,Si + Al @ 5.0e+17 cm^-3,,,Al,
Systematic_Generation,,1e+18,Si:Al_1.0e+18,,Inherited,,,,,,,,,DOPED_002988,,,Doped_Semiconductor,,,Si_Al,Si + Al @ 1.0e+18 cm^-3,,,Al,
Systematic_Generation,,5e+18,Si:Al_5.0e+18,,Inherited,,,,,,,,,DOPED_002989,,,Doped_Semiconductor,,,Si_Al,Si + Al @ 5.0e+18 cm^-3,,,Al,
Systematic_Generation,,1e+19,Si:Al_1.0e+19,,Inherited,,,,,,,,,DOPED_002990,,,Doped_Semiconductor,,,Si_Al,Si + Al @ 1.0e+19 cm^-3,,,Al,
Systematic_Generation,,5e+19,Si:Al_5.0e+19,,Inherited,,,,,,,,,DOPED_002991,,,Doped_Semiconductor,,,Si_Al,Si + Al @ 5.0e+19 cm^-3,,,Al,
Systematic_Generation,,1e+20,Si:Al_1.0e+20,,Inherited,,,,,,,,,DOPED_002992,,,Doped_Semiconductor,,,Si_Al,Si + Al @ 1.0e+20 cm^-3,,,Al,
Systematic_Generation,,1e+21,Si:Al_1.0e+21,,Inherited,,,,,,,,,DOPED_002993,,,Doped_Semiconductor,,,Si_Al,Si + Al @ 1.0e+21 cm^-3,,,Al,
Systematic_Generation,,1000000000000000.0,Si:Ga_1.0e+15,,Inherited,,,,,,,,,DOPED_002994,,,Doped_Semiconductor,,,Si_Ga,Si + Ga @ 1.0e+15 cm^-3,,,Ga,
Systematic_Generation,,5000000000000000.0,Si:Ga_5.0e+15,,Inherited,,,,,,,,,DOPED_002995,,,Doped_Semiconductor,,,Si_Ga,Si + Ga @ 5.0e+15 cm^-3,,,Ga,
Systematic_Generation,,1e+16,Si:Ga_1.0e+16,,Inherited,,,,,,,,,DOPED_002996,,,Doped_Semiconductor,,,Si_Ga,Si + Ga @ 1.0e+16 cm^-3,,,Ga,
Systematic_Generation,,5e+16,Si:Ga_5.0e+16,,Inherited,,,,,,,,,DOPED_002997,,,Doped_Semiconductor,,,Si_Ga,Si + Ga @ 5.0e+16 cm^-3,,,Ga,
Systematic_Generation,,1e+17,Si:Ga_1.0e+17,,Inherited,,,,,,,,,DOPED_002998,,,Doped_Semiconductor,,,Si_Ga,Si + Ga @ 1.0e+17 cm^-3,,,Ga,
Systematic_Generation,,5e+17,Si:Ga_5.0e+17,,Inherited,,,,,,,,,DOPED_002999,,,Doped_Semiconductor,,,Si_Ga,Si + Ga @ 5.0e+17 cm^-3,,,Ga,
Systematic_Generation,,1e+18,Si:Ga_1.0e+18,,Inherited,,,,,,,,,DOPED_003000,,,Doped_Semiconductor,,,Si_Ga,Si + Ga @ 1.0e+18 cm^-3,,,Ga,
Systematic_Generation,,5e+18,Si:Ga_5.0e+18,,Inherited,,,,,,,,,DOPED_003001,,,Doped_Semiconductor,,,Si_Ga,Si + Ga @ 5.0e+18 cm^-3,,,Ga,
Systematic_Generation,,1e+19,Si:Ga_1.0e+19,,Inherited,,,,,,,,,DOPED_003002,,,Doped_Semiconductor,,,Si_Ga,Si + Ga @ 1.0e+19 cm^-3,,,Ga,
Systematic_Generation,,5e+19,Si:Ga_5.0e+19,,Inherited,,,,,,,,,DOPED_003003,,,Doped_Semiconductor,,,Si_Ga,Si + Ga @ 5.0e+19 cm^-3,,,Ga,
Systematic_Generation,,1e+20,Si:Ga_1.0e+20,,Inherited,,,,,,,,,DOPED_003004,,,Doped_Semiconductor,,,Si_Ga,Si + Ga @ 1.0e+20 cm^-3,,,Ga,
Systematic_Generation,,1e+21,Si:Ga_1.0e+21,,Inherited,,,,,,,,,DOPED_003005,,,Doped_Semiconductor,,,Si_Ga,Si + Ga @ 1.0e+21 cm^-3,,,Ga,
Systematic_Generation,,1000000000000000.0,Si:In_1.0e+15,,Inherited,,,,,,,,,DOPED_003006,,,Doped_Semiconductor,,,Si_In,Si + In @ 1.0e+15 cm^-3,,,In,
Systematic_Generation,,5000000000000000.0,Si:In_5.0e+15,,Inherited,,,,,,,,,DOPED_003007,,,Doped_Semiconductor,,,Si_In,Si + In @ 5.0e+15 cm^-3,,,In,
Systematic_Generation,,1e+16,Si:In_1.0e+16,,Inherited,,,,,,,,,DOPED_003008,,,Doped_Semiconductor,,,Si_In,Si + In @ 1.0e+16 cm^-3,,,In,
Systematic_Generation,,5e+16,Si:In_5.0e+16,,Inherited,,,,,,,,,DOPED_003009,,,Doped_Semiconductor,,,Si_In,Si + In @ 5.0e+16 cm^-3,,,In,
Systematic_Generation,,1e+17,Si:In_1.0e+17,,Inherited,,,,,,,,,DOPED_003010,,,Doped_Semiconductor,,,Si_In,Si + In @ 1.0e+17 cm^-3,,,In,
Systematic_Generation,,5e+17,Si:In_5.0e+17,,Inherited,,,,,,,,,DOPED_003011,,,Doped_Semiconductor,,,Si_In,Si + In @ 5.0e+17 cm^-3,,,In,
Systematic_Generation,,1e+18,Si:In_1.0e+18,,Inherited,,,,,,,,,DOPED_003012,,,Doped_Semiconductor,,,Si_In,Si + In @ 1.0e+18 cm^-3,,,In,
Systematic_Generation,,5e+18,Si:In_5.0e+18,,Inherited,,,,,,,,,DOPED_003013,,,Doped_Semiconductor,,,Si_In,Si + In @ 5.0e+18 cm^-3,,,In,
Systematic_Generation,,1e+19,Si:In_1.0e+19,,Inherited,,,,,,,,,DOPED_003014,,,Doped_Semiconductor,,,Si_In,Si + In @ 1.0e+19 cm^-3,,,In,
Systematic_Generation,,5e+19,Si:In_5.0e+19,,Inherited,,,,,,,,,DOPED_003015,,,Doped_Semiconductor,,,Si_In,Si + In @ 5.0e+19 cm^-3,,,In,
Systematic_Generation,,1e+20,Si:In_1.0e+20,,Inherited,,,,,,,,,DOPED_003016,,,Doped_Semiconductor,,,Si_In,Si + In @ 1.0e+20 cm^-3,,,In,
Systematic_Generation,,1e+21,Si:In_1.0e+21,,Inherited,,,,,,,,,DOPED_003017,,,Doped_Semiconductor,,,Si_In,Si + In @ 1.0e+21 cm^-3,,,In,
Systematic_Generation,,1000000000000000.0,Si:Bi_1.0e+15,,Inherited,,,,,,,,,DOPED_003018,,,Doped_Semiconductor,,,Si_Bi,Si + Bi @ 1.0e+15 cm^-3,,,Bi,
Systematic_Generation,,5000000000000000.0,Si:Bi_5.0e+15,,Inherited,,,,,,,,,DOPED_003019,,,Doped_Semiconductor,,,Si_Bi,Si + Bi @ 5.0e+15 cm^-3,,,Bi,
Systematic_Generation,,1e+16,Si:Bi_1.0e+16,,Inherited,,,,,,,,,DOPED_003020,,,Doped_Semiconductor,,,Si_Bi,Si + Bi @ 1.0e+16 cm^-3,,,Bi,
Systematic_Generation,,5e+16,Si:Bi_5.0e+16,,Inherited,,,,,,,,,DOPED_003021,,,Doped_Semiconductor,,,Si_Bi,Si + Bi @ 5.0e+16 cm^-3,,,Bi,
Systematic_Generation,,1e+17,Si:Bi_1.0e+17,,Inherited,,,,,,,,,DOPED_003022,,,Doped_Semiconductor,,,Si_Bi,Si + Bi @ 1.0e+17 cm^-3,,,Bi,
Systematic_Generation,,5e+17,Si:Bi_5.0e+17,,Inherited,,,,,,,,,DOPED_003023,,,Doped_Semiconductor,,,Si_Bi,Si + Bi @ 5.0e+17 cm^-3,,,Bi,
Systematic_Generation,,1e+18,Si:Bi_1.0e+18,,Inherited,,,,,,,,,DOPED_003024,,,Doped_Semiconductor,,,Si_Bi,Si + Bi @ 1.0e+18 cm^-3,,,Bi,
Systematic_Generation,,5e+18,Si:Bi_5.0e+18,,Inherited,,,,,,,,,DOPED_003025,,,Doped_Semiconductor,,,Si_Bi,Si + Bi @ 5.0e+18 cm^-3,,,Bi,
Systematic_Generation,,1e+19,Si:Bi_1.0e+19,,Inherited,,,,,,,,,DOPED_003026,,,Doped_Semiconductor,,,Si_Bi,Si + Bi @ 1.0e+19 cm^-3,,,Bi,
Systematic_Generation,,5e+19,Si:Bi_5.0e+19,,Inherited,,,,,,,,,DOPED_003027,,,Doped_Semiconductor,,,Si_Bi,Si + Bi @ 5.0e+19 cm^-3,,,Bi,
Systematic_Generation,,1e+20,Si:Bi_1.0e+20,,Inherited,,,,,,,,,DOPED_003028,,,Doped_Semiconductor,,,Si_Bi,Si + Bi @ 1.0e+20 cm^-3,,,Bi,
Systematic_Generation,,1e+21,Si:Bi_1.0e+21,,Inherited,,,,,,,,,DOPED_003029,,,Doped_Semiconductor,,,Si_Bi,Si + Bi @ 1.0e+21 cm^-3,,,Bi,
Systematic_Generation,,1000000000000000.0,Si:Li_1.0e+15,,Inherited,,,,,,,,,DOPED_003030,,,Doped_Semiconductor,,,Si_Li,Si + Li @ 1.0e+15 cm^-3,,,Li,
Systematic_Generation,,5000000000000000.0,Si:Li_5.0e+15,,Inherited,,,,,,,,,DOPED_003031,,,Doped_Semiconductor,,,Si_Li,Si + Li @ 5.0e+15 cm^-3,,,Li,
Systematic_Generation,,1e+16,Si:Li_1.0e+16,,Inherited,,,,,,,,,DOPED_003032,,,Doped_Semiconductor,,,Si_Li,Si + Li @ 1.0e+16 cm^-3,,,Li,
Systematic_Generation,,5e+16,Si:Li_5.0e+16,,Inherited,,,,,,,,,DOPED_003033,,,Doped_Semiconductor,,,Si_Li,Si + Li @ 5.0e+16 cm^-3,,,Li,
Systematic_Generation,,1e+17,Si:Li_1.0e+17,,Inherited,,,,,,,,,DOPED_003034,,,Doped_Semiconductor,,,Si_Li,Si + Li @ 1.0e+17 cm^-3,,,Li,
Systematic_Generation,,5e+17,Si:Li_5.0e+17,,Inherited,,,,,,,,,DOPED_003035,,,Doped_Semiconductor,,,Si_Li,Si + Li @ 5.0e+17 cm^-3,,,Li,
Systematic_Generation,,1e+18,Si:Li_1.0e+18,,Inherited,,,,,,,,,DOPED_003036,,,Doped_Semiconductor,,,Si_Li,Si + Li @ 1.0e+18 cm^-3,,,Li,
Systematic_Generation,,5e+18,Si:Li_5.0e+18,,Inherited,,,,,,,,,DOPED_003037,,,Doped_Semiconductor,,,Si_Li,Si + Li @ 5.0e+18 cm^-3,,,Li,
Systematic_Generation,,1e+19,Si:Li_1.0e+19,,Inherited,,,,,,,,,DOPED_003038,,,Doped_Semiconductor,,,Si_Li,Si + Li @ 1.0e+19 cm^-3,,,Li,
Systematic_Generation,,5e+19,Si:Li_5.0e+19,,Inherited,,,,,,,,,DOPED_003039,,,Doped_Semiconductor,,,Si_Li,Si + Li @ 5.0e+19 cm^-3,,,Li,
Systematic_Generation,,1e+20,Si:Li_1.0e+20,,Inherited,,,,,,,,,DOPED_003040,,,Doped_Semiconductor,,,Si_Li,Si + Li @ 1.0e+20 cm^-3,,,Li,
Systematic_Generation,,1e+21,Si:Li_1.0e+21,,Inherited,,,,,,,,,DOPED_003041,,,Doped_Semiconductor,,,Si_Li,Si + Li @ 1.0e+21 cm^-3,,,Li,
Systematic_Generation,,1000000000000000.0,Si:S_1.0e+15,,Inherited,,,,,,,,,DOPED_003042,,,Doped_Semiconductor,,,Si_S,Si + S @ 1.0e+15 cm^-3,,,S,
Systematic_Generation,,5000000000000000.0,Si:S_5.0e+15,,Inherited,,,,,,,,,DOPED_003043,,,Doped_Semiconductor,,,Si_S,Si + S @ 5.0e+15 cm^-3,,,S,
Systematic_Generation,,1e+16,Si:S_1.0e+16,,Inherited,,,,,,,,,DOPED_003044,,,Doped_Semiconductor,,,Si_S,Si + S @ 1.0e+16 cm^-3,,,S,
Systematic_Generation,,5e+16,Si:S_5.0e+16,,Inherited,,,,,,,,,DOPED_003045,,,Doped_Semiconductor,,,Si_S,Si + S @ 5.0e+16 cm^-3,,,S,
Systematic_Generation,,1e+17,Si:S_1.0e+17,,Inherited,,,,,,,,,DOPED_003046,,,Doped_Semiconductor,,,Si_S,Si + S @ 1.0e+17 cm^-3,,,S,
Systematic_Generation,,5e+17,Si:S_5.0e+17,,Inherited,,,,,,,,,DOPED_003047,,,Doped_Semiconductor,,,Si_S,Si + S @ 5.0e+17 cm^-3,,,S,
Systematic_Generation,,1e+18,Si:S_1.0e+18,,Inherited,,,,,,,,,DOPED_003048,,,Doped_Semiconductor,,,Si_S,Si + S @ 1.0e+18 cm^-3,,,S,
Systematic_Generation,,5e+18,Si:S_5.0e+18,,Inherited,,,,,,,,,DOPED_003049,,,Doped_Semiconductor,,,Si_S,Si + S @ 5.0e+18 cm^-3,,,S,
Systematic_Generation,,1e+19,Si:S_1.0e+19,,Inherited,,,,,,,,,DOPED_003050,,,Doped_Semiconductor,,,Si_S,Si + S @ 1.0e+19 cm^-3,,,S,
Systematic_Generation,,5e+19,Si:S_5.0e+19,,Inherited,,,,,,,,,DOPED_003051,,,Doped_Semiconductor,,,Si_S,Si + S @ 5.0e+19 cm^-3,,,S,
Systematic_Generation,,1e+20,Si:S_1.0e+20,,Inherited,,,,,,,,,DOPED_003052,,,Doped_Semiconductor,,,Si_S,Si + S @ 1.0e+20 cm^-3,,,S,
Systematic_Generation,,1e+21,Si:S_1.0e+21,,Inherited,,,,,,,,,DOPED_003053,,,Doped_Semiconductor,,,Si_S,Si + S @ 1.0e+21 cm^-3,,,S,
Systematic_Generation,,1000000000000000.0,Si:Se_1.0e+15,,Inherited,,,,,,,,,DOPED_003054,,,Doped_Semiconductor,,,Si_Se,Si + Se @ 1.0e+15 cm^-3,,,Se,
Systematic_Generation,,5000000000000000.0,Si:Se_5.0e+15,,Inherited,,,,,,,,,DOPED_003055,,,Doped_Semiconductor,,,Si_Se,Si + Se @ 5.0e+15 cm^-3,,,Se,
Systematic_Generation,,1e+16,Si:Se_1.0e+16,,Inherited,,,,,,,,,DOPED_003056,,,Doped_Semiconductor,,,Si_Se,Si + Se @ 1.0e+16 cm^-3,,,Se,
Systematic_Generation,,5e+16,Si:Se_5.0e+16,,Inherited,,,,,,,,,DOPED_003057,,,Doped_Semiconductor,,,Si_Se,Si + Se @ 5.0e+16 cm^-3,,,Se,
Systematic_Generation,,1e+17,Si:Se_1.0e+17,,Inherited,,,,,,,,,DOPED_003058,,,Doped_Semiconductor,,,Si_Se,Si + Se @ 1.0e+17 cm^-3,,,Se,
Systematic_Generation,,5e+17,Si:Se_5.0e+17,,Inherited,,,,,,,,,DOPED_003059,,,Doped_Semiconductor,,,Si_Se,Si + Se @ 5.0e+17 cm^-3,,,Se,
Systematic_Generation,,1e+18,Si:Se_1.0e+18,,Inherited,,,,,,,,,DOPED_003060,,,Doped_Semiconductor,,,Si_Se,Si + Se @ 1.0e+18 cm^-3,,,Se,
Systematic_Generation,,5e+18,Si:Se_5.0e+18,,Inherited,,,,,,,,,DOPED_003061,,,Doped_Semiconductor,,,Si_Se,Si + Se @ 5.0e+18 cm^-3,,,Se,
Systematic_Generation,,1e+19,Si:Se_1.0e+19,,Inherited,,,,,,,,,DOPED_003062,,,Doped_Semiconductor,,,Si_Se,Si + Se @ 1.0e+19 cm^-3,,,Se,
Systematic_Generation,,5e+19,Si:Se_5.0e+19,,Inherited,,,,,,,,,DOPED_003063,,,Doped_Semiconductor,,,Si_Se,Si + Se @ 5.0e+19 cm^-3,,,Se,
Systematic_Generation,,1e+20,Si:Se_1.0e+20,,Inherited,,,,,,,,,DOPED_003064,,,Doped_Semiconductor,,,Si_Se,Si + Se @ 1.0e+20 cm^-3,,,Se,
Systematic_Generation,,1e+21,Si:Se_1.0e+21,,Inherited,,,,,,,,,DOPED_003065,,,Doped_Semiconductor,,,Si_Se,Si + Se @ 1.0e+21 cm^-3,,,Se,
Systematic_Generation,,1000000000000000.0,Si:Te_1.0e+15,,Inherited,,,,,,,,,DOPED_003066,,,Doped_Semiconductor,,,Si_Te,Si + Te @ 1.0e+15 cm^-3,,,Te,
Systematic_Generation,,5000000000000000.0,Si:Te_5.0e+15,,Inherited,,,,,,,,,DOPED_003067,,,Doped_Semiconductor,,,Si_Te,Si + Te @ 5.0e+15 cm^-3,,,Te,
Systematic_Generation,,1e+16,Si:Te_1.0e+16,,Inherited,,,,,,,,,DOPED_003068,,,Doped_Semiconductor,,,Si_Te,Si + Te @ 1.0e+16 cm^-3,,,Te,
Systematic_Generation,,5e+16,Si:Te_5.0e+16,,Inherited,,,,,,,,,DOPED_003069,,,Doped_Semiconductor,,,Si_Te,Si + Te @ 5.0e+16 cm^-3,,,Te,
Systematic_Generation,,1e+17,Si:Te_1.0e+17,,Inherited,,,,,,,,,DOPED_003070,,,Doped_Semiconductor,,,Si_Te,Si + Te @ 1.0e+17 cm^-3,,,Te,
Systematic_Generation,,5e+17,Si:Te_5.0e+17,,Inherited,,,,,,,,,DOPED_003071,,,Doped_Semiconductor,,,Si_Te,Si + Te @ 5.0e+17 cm^-3,,,Te,
Systematic_Generation,,1e+18,Si:Te_1.0e+18,,Inherited,,,,,,,,,DOPED_003072,,,Doped_Semiconductor,,,Si_Te,Si + Te @ 1.0e+18 cm^-3,,,Te,
Systematic_Generation,,5e+18,Si:Te_5.0e+18,,Inherited,,,,,,,,,DOPED_003073,,,Doped_Semiconductor,,,Si_Te,Si + Te @ 5.0e+18 cm^-3,,,Te,
Systematic_Generation,,1e+19,Si:Te_1.0e+19,,Inherited,,,,,,,,,DOPED_003074,,,Doped_Semiconductor,,,Si_Te,Si + Te @ 1.0e+19 cm^-3,,,Te,
Systematic_Generation,,5e+19,Si:Te_5.0e+19,,Inherited,,,,,,,,,DOPED_003075,,,Doped_Semiconductor,,,Si_Te,Si + Te @ 5.0e+19 cm^-3,,,Te,
Systematic_Generation,,1e+20,Si:Te_1.0e+20,,Inherited,,,,,,,,,DOPED_003076,,,Doped_Semiconductor,,,Si_Te,Si + Te @ 1.0e+20 cm^-3,,,Te,
Systematic_Generation,,1e+21,Si:Te_1.0e+21,,Inherited,,,,,,,,,DOPED_003077,,,Doped_Semiconductor,,,Si_Te,Si + Te @ 1.0e+21 cm^-3,,,Te,
Systematic_Generation,,1000000000000000.0,Ge:B_1.0e+15,,Inherited,,,,,,,,,DOPED_003078,,,Doped_Semiconductor,,,Ge_B,Ge + B @ 1.0e+15 cm^-3,,,B,
Systematic_Generation,,5000000000000000.0,Ge:B_5.0e+15,,Inherited,,,,,,,,,DOPED_003079,,,Doped_Semiconductor,,,Ge_B,Ge + B @ 5.0e+15 cm^-3,,,B,
Systematic_Generation,,1e+16,Ge:B_1.0e+16,,Inherited,,,,,,,,,DOPED_003080,,,Doped_Semiconductor,,,Ge_B,Ge + B @ 1.0e+16 cm^-3,,,B,
Systematic_Generation,,5e+16,Ge:B_5.0e+16,,Inherited,,,,,,,,,DOPED_003081,,,Doped_Semiconductor,,,Ge_B,Ge + B @ 5.0e+16 cm^-3,,,B,
Systematic_Generation,,1e+17,Ge:B_1.0e+17,,Inherited,,,,,,,,,DOPED_003082,,,Doped_Semiconductor,,,Ge_B,Ge + B @ 1.0e+17 cm^-3,,,B,
Systematic_Generation,,5e+17,Ge:B_5.0e+17,,Inherited,,,,,,,,,DOPED_003083,,,Doped_Semiconductor,,,Ge_B,Ge + B @ 5.0e+17 cm^-3,,,B,
Systematic_Generation,,1e+18,Ge:B_1.0e+18,,Inherited,,,,,,,,,DOPED_003084,,,Doped_Semiconductor,,,Ge_B,Ge + B @ 1.0e+18 cm^-3,,,B,
Systematic_Generation,,5e+18,Ge:B_5.0e+18,,Inherited,,,,,,,,,DOPED_003085,,,Doped_Semiconductor,,,Ge_B,Ge + B @ 5.0e+18 cm^-3,,,B,
Systematic_Generation,,1e+19,Ge:B_1.0e+19,,Inherited,,,,,,,,,DOPED_003086,,,Doped_Semiconductor,,,Ge_B,Ge + B @ 1.0e+19 cm^-3,,,B,
Systematic_Generation,,5e+19,Ge:B_5.0e+19,,Inherited,,,,,,,,,DOPED_003087,,,Doped_Semiconductor,,,Ge_B,Ge + B @ 5.0e+19 cm^-3,,,B,
Systematic_Generation,,1e+20,Ge:B_1.0e+20,,Inherited,,,,,,,,,DOPED_003088,,,Doped_Semiconductor,,,Ge_B,Ge + B @ 1.0e+20 cm^-3,,,B,
Systematic_Generation,,1e+21,Ge:B_1.0e+21,,Inherited,,,,,,,,,DOPED_003089,,,Doped_Semiconductor,,,Ge_B,Ge + B @ 1.0e+21 cm^-3,,,B,
Systematic_Generation,,1000000000000000.0,Ge:P_1.0e+15,,Inherited,,,,,,,,,DOPED_003090,,,Doped_Semiconductor,,,Ge_P,Ge + P @ 1.0e+15 cm^-3,,,P,
Systematic_Generation,,5000000000000000.0,Ge:P_5.0e+15,,Inherited,,,,,,,,,DOPED_003091,,,Doped_Semiconductor,,,Ge_P,Ge + P @ 5.0e+15 cm^-3,,,P,
Systematic_Generation,,1e+16,Ge:P_1.0e+16,,Inherited,,,,,,,,,DOPED_003092,,,Doped_Semiconductor,,,Ge_P,Ge + P @ 1.0e+16 cm^-3,,,P,
Systematic_Generation,,5e+16,Ge:P_5.0e+16,,Inherited,,,,,,,,,DOPED_003093,,,Doped_Semiconductor,,,Ge_P,Ge + P @ 5.0e+16 cm^-3,,,P,
Systematic_Generation,,1e+17,Ge:P_1.0e+17,,Inherited,,,,,,,,,DOPED_003094,,,Doped_Semiconductor,,,Ge_P,Ge + P @ 1.0e+17 cm^-3,,,P,
Systematic_Generation,,5e+17,Ge:P_5.0e+17,,Inherited,,,,,,,,,DOPED_003095,,,Doped_Semiconductor,,,Ge_P,Ge + P @ 5.0e+17 cm^-3,,,P,
Systematic_Generation,,1e+18,Ge:P_1.0e+18,,Inherited,,,,,,,,,DOPED_003096,,,Doped_Semiconductor,,,Ge_P,Ge + P @ 1.0e+18 cm^-3,,,P,
Systematic_Generation,,5e+18,Ge:P_5.0e+18,,Inherited,,,,,,,,,DOPED_003097,,,Doped_Semiconductor,,,Ge_P,Ge + P @ 5.0e+18 cm^-3,,,P,
Systematic_Generation,,1e+19,Ge:P_1.0e+19,,Inherited,,,,,,,,,DOPED_003098,,,Doped_Semiconductor,,,Ge_P,Ge + P @ 1.0e+19 cm^-3,,,P,
Systematic_Generation,,5e+19,Ge:P_5.0e+19,,Inherited,,,,,,,,,DOPED_003099,,,Doped_Semiconductor,,,Ge_P,Ge + P @ 5.0e+19 cm^-3,,,P,
Systematic_Generation,,1e+20,Ge:P_1.0e+20,,Inherited,,,,,,,,,DOPED_003100,,,Doped_Semiconductor,,,Ge_P,Ge + P @ 1.0e+20 cm^-3,,,P,
Systematic_Generation,,1e+21,Ge:P_1.0e+21,,Inherited,,,,,,,,,DOPED_003101,,,Doped_Semiconductor,,,Ge_P,Ge + P @ 1.0e+21 cm^-3,,,P,
Systematic_Generation,,1000000000000000.0,Ge:As_1.0e+15,,Inherited,,,,,,,,,DOPED_003102,,,Doped_Semiconductor,,,Ge_As,Ge + As @ 1.0e+15 cm^-3,,,As,
Systematic_Generation,,5000000000000000.0,Ge:As_5.0e+15,,Inherited,,,,,,,,,DOPED_003103,,,Doped_Semiconductor,,,Ge_As,Ge + As @ 5.0e+15 cm^-3,,,As,
Systematic_Generation,,1e+16,Ge:As_1.0e+16,,Inherited,,,,,,,,,DOPED_003104,,,Doped_Semiconductor,,,Ge_As,Ge + As @ 1.0e+16 cm^-3,,,As,
Systematic_Generation,,5e+16,Ge:As_5.0e+16,,Inherited,,,,,,,,,DOPED_003105,,,Doped_Semiconductor,,,Ge_As,Ge + As @ 5.0e+16 cm^-3,,,As,
Systematic_Generation,,1e+17,Ge:As_1.0e+17,,Inherited,,,,,,,,,DOPED_003106,,,Doped_Semiconductor,,,Ge_As,Ge + As @ 1.0e+17 cm^-3,,,As,
Systematic_Generation,,5e+17,Ge:As_5.0e+17,,Inherited,,,,,,,,,DOPED_003107,,,Doped_Semiconductor,,,Ge_As,Ge + As @ 5.0e+17 cm^-3,,,As,
Systematic_Generation,,1e+18,Ge:As_1.0e+18,,Inherited,,,,,,,,,DOPED_003108,,,Doped_Semiconductor,,,Ge_As,Ge + As @ 1.0e+18 cm^-3,,,As,
Systematic_Generation,,5e+18,Ge:As_5.0e+18,,Inherited,,,,,,,,,DOPED_003109,,,Doped_Semiconductor,,,Ge_As,Ge + As @ 5.0e+18 cm^-3,,,As,
Systematic_Generation,,1e+19,Ge:As_1.0e+19,,Inherited,,,,,,,,,DOPED_003110,,,Doped_Semiconductor,,,Ge_As,Ge + As @ 1.0e+19 cm^-3,,,As,
Systematic_Generation,,5e+19,Ge:As_5.0e+19,,Inherited,,,,,,,,,DOPED_003111,,,Doped_Semiconductor,,,Ge_As,Ge + As @ 5.0e+19 cm^-3,,,As,
Systematic_Generation,,1e+20,Ge:As_1.0e+20,,Inherited,,,,,,,,,DOPED_003112,,,Doped_Semiconductor,,,Ge_As,Ge + As @ 1.0e+20 cm^-3,,,As,
Systematic_Generation,,1e+21,Ge:As_1.0e+21,,Inherited,,,,,,,,,DOPED_003113,,,Doped_Semiconductor,,,Ge_As,Ge + As @ 1.0e+21 cm^-3,,,As,