source,n_elements,doping_concentration,name,termination,space_group,doping_level,volume_fraction,weight_percent,lattice_c,temperature,reinforcement,matrix,layers,material_id,molecular_weight,deposition_method,type,lattice_b,pdi,formula,composition,lattice_a,thickness_nm,dopant,substrate
Systematic_Generation,,5e+18,ZnS:Se_5.0e+18,,Inherited,,,,,,,,,DOPED_004933,,,Doped_Semiconductor,,,ZnS_Se,ZnS + Se @ 5.0e+18 cm^-3,,,Se,
Systematic_Generation,,1e+19,ZnS:Se_1.0e+19,,Inherited,,,,,,,,,DOPED_004934,,,Doped_Semiconductor,,,ZnS_Se,ZnS + Se @ 1.0e+19 cm^-3,,,Se,
Systematic_Generation,,5e+19,ZnS:Se_5.0e+19,,Inherited,,,,,,,,,DOPED_004935,,,Doped_Semiconductor,,,ZnS_Se,ZnS + Se @ 5.0e+19 cm^-3,,,Se,
Systematic_Generation,,1e+20,ZnS:Se_1.0e+20,,Inherited,,,,,,,,,DOPED_004936,,,Doped_Semiconductor,,,ZnS_Se,ZnS + Se @ 1.0e+20 cm^-3,,,Se,
Systematic_Generation,,1e+21,ZnS:Se_1.0e+21,,Inherited,,,,,,,,,DOPED_004937,,,Doped_Semiconductor,,,ZnS_Se,ZnS + Se @ 1.0e+21 cm^-3,,,Se,
Systematic_Generation,,1000000000000000.0,ZnS:Te_1.0e+15,,Inherited,,,,,,,,,DOPED_004938,,,Doped_Semiconductor,,,ZnS_Te,ZnS + Te @ 1.0e+15 cm^-3,,,Te,
Systematic_Generation,,5000000000000000.0,ZnS:Te_5.0e+15,,Inherited,,,,,,,,,DOPED_004939,,,Doped_Semiconductor,,,ZnS_Te,ZnS + Te @ 5.0e+15 cm^-3,,,Te,
Systematic_Generation,,1e+16,ZnS:Te_1.0e+16,,Inherited,,,,,,,,,DOPED_004940,,,Doped_Semiconductor,,,ZnS_Te,ZnS + Te @ 1.0e+16 cm^-3,,,Te,
Systematic_Generation,,5e+16,ZnS:Te_5.0e+16,,Inherited,,,,,,,,,DOPED_004941,,,Doped_Semiconductor,,,ZnS_Te,ZnS + Te @ 5.0e+16 cm^-3,,,Te,
Systematic_Generation,,1e+17,ZnS:Te_1.0e+17,,Inherited,,,,,,,,,DOPED_004942,,,Doped_Semiconductor,,,ZnS_Te,ZnS + Te @ 1.0e+17 cm^-3,,,Te,
Systematic_Generation,,5e+17,ZnS:Te_5.0e+17,,Inherited,,,,,,,,,DOPED_004943,,,Doped_Semiconductor,,,ZnS_Te,ZnS + Te @ 5.0e+17 cm^-3,,,Te,
Systematic_Generation,,1e+18,ZnS:Te_1.0e+18,,Inherited,,,,,,,,,DOPED_004944,,,Doped_Semiconductor,,,ZnS_Te,ZnS + Te @ 1.0e+18 cm^-3,,,Te,
Systematic_Generation,,5e+18,ZnS:Te_5.0e+18,,Inherited,,,,,,,,,DOPED_004945,,,Doped_Semiconductor,,,ZnS_Te,ZnS + Te @ 5.0e+18 cm^-3,,,Te,
Systematic_Generation,,1e+19,ZnS:Te_1.0e+19,,Inherited,,,,,,,,,DOPED_004946,,,Doped_Semiconductor,,,ZnS_Te,ZnS + Te @ 1.0e+19 cm^-3,,,Te,
Systematic_Generation,,5e+19,ZnS:Te_5.0e+19,,Inherited,,,,,,,,,DOPED_004947,,,Doped_Semiconductor,,,ZnS_Te,ZnS + Te @ 5.0e+19 cm^-3,,,Te,
Systematic_Generation,,1e+20,ZnS:Te_1.0e+20,,Inherited,,,,,,,,,DOPED_004948,,,Doped_Semiconductor,,,ZnS_Te,ZnS + Te @ 1.0e+20 cm^-3,,,Te,
Systematic_Generation,,1e+21,ZnS:Te_1.0e+21,,Inherited,,,,,,,,,DOPED_004949,,,Doped_Semiconductor,,,ZnS_Te,ZnS + Te @ 1.0e+21 cm^-3,,,Te,
Systematic_Generation,,1000000000000000.0,ZnSe:B_1.0e+15,,Inherited,,,,,,,,,DOPED_004950,,,Doped_Semiconductor,,,ZnSe_B,ZnSe + B @ 1.0e+15 cm^-3,,,B,
Systematic_Generation,,5000000000000000.0,ZnSe:B_5.0e+15,,Inherited,,,,,,,,,DOPED_004951,,,Doped_Semiconductor,,,ZnSe_B,ZnSe + B @ 5.0e+15 cm^-3,,,B,
Systematic_Generation,,1e+16,ZnSe:B_1.0e+16,,Inherited,,,,,,,,,DOPED_004952,,,Doped_Semiconductor,,,ZnSe_B,ZnSe + B @ 1.0e+16 cm^-3,,,B,
Systematic_Generation,,5e+16,ZnSe:B_5.0e+16,,Inherited,,,,,,,,,DOPED_004953,,,Doped_Semiconductor,,,ZnSe_B,ZnSe + B @ 5.0e+16 cm^-3,,,B,
Systematic_Generation,,1e+17,ZnSe:B_1.0e+17,,Inherited,,,,,,,,,DOPED_004954,,,Doped_Semiconductor,,,ZnSe_B,ZnSe + B @ 1.0e+17 cm^-3,,,B,
Systematic_Generation,,5e+17,ZnSe:B_5.0e+17,,Inherited,,,,,,,,,DOPED_004955,,,Doped_Semiconductor,,,ZnSe_B,ZnSe + B @ 5.0e+17 cm^-3,,,B,
Systematic_Generation,,1e+18,ZnSe:B_1.0e+18,,Inherited,,,,,,,,,DOPED_004956,,,Doped_Semiconductor,,,ZnSe_B,ZnSe + B @ 1.0e+18 cm^-3,,,B,
Systematic_Generation,,5e+18,ZnSe:B_5.0e+18,,Inherited,,,,,,,,,DOPED_004957,,,Doped_Semiconductor,,,ZnSe_B,ZnSe + B @ 5.0e+18 cm^-3,,,B,
Systematic_Generation,,1e+19,ZnSe:B_1.0e+19,,Inherited,,,,,,,,,DOPED_004958,,,Doped_Semiconductor,,,ZnSe_B,ZnSe + B @ 1.0e+19 cm^-3,,,B,
Systematic_Generation,,5e+19,ZnSe:B_5.0e+19,,Inherited,,,,,,,,,DOPED_004959,,,Doped_Semiconductor,,,ZnSe_B,ZnSe + B @ 5.0e+19 cm^-3,,,B,
Systematic_Generation,,1e+20,ZnSe:B_1.0e+20,,Inherited,,,,,,,,,DOPED_004960,,,Doped_Semiconductor,,,ZnSe_B,ZnSe + B @ 1.0e+20 cm^-3,,,B,
Systematic_Generation,,1e+21,ZnSe:B_1.0e+21,,Inherited,,,,,,,,,DOPED_004961,,,Doped_Semiconductor,,,ZnSe_B,ZnSe + B @ 1.0e+21 cm^-3,,,B,
Systematic_Generation,,1000000000000000.0,ZnSe:P_1.0e+15,,Inherited,,,,,,,,,DOPED_004962,,,Doped_Semiconductor,,,ZnSe_P,ZnSe + P @ 1.0e+15 cm^-3,,,P,
Systematic_Generation,,5000000000000000.0,ZnSe:P_5.0e+15,,Inherited,,,,,,,,,DOPED_004963,,,Doped_Semiconductor,,,ZnSe_P,ZnSe + P @ 5.0e+15 cm^-3,,,P,
Systematic_Generation,,1e+16,ZnSe:P_1.0e+16,,Inherited,,,,,,,,,DOPED_004964,,,Doped_Semiconductor,,,ZnSe_P,ZnSe + P @ 1.0e+16 cm^-3,,,P,
Systematic_Generation,,5e+16,ZnSe:P_5.0e+16,,Inherited,,,,,,,,,DOPED_004965,,,Doped_Semiconductor,,,ZnSe_P,ZnSe + P @ 5.0e+16 cm^-3,,,P,
Systematic_Generation,,1e+17,ZnSe:P_1.0e+17,,Inherited,,,,,,,,,DOPED_004966,,,Doped_Semiconductor,,,ZnSe_P,ZnSe + P @ 1.0e+17 cm^-3,,,P,
Systematic_Generation,,5e+17,ZnSe:P_5.0e+17,,Inherited,,,,,,,,,DOPED_004967,,,Doped_Semiconductor,,,ZnSe_P,ZnSe + P @ 5.0e+17 cm^-3,,,P,
Systematic_Generation,,1e+18,ZnSe:P_1.0e+18,,Inherited,,,,,,,,,DOPED_004968,,,Doped_Semiconductor,,,ZnSe_P,ZnSe + P @ 1.0e+18 cm^-3,,,P,
Systematic_Generation,,5e+18,ZnSe:P_5.0e+18,,Inherited,,,,,,,,,DOPED_004969,,,Doped_Semiconductor,,,ZnSe_P,ZnSe + P @ 5.0e+18 cm^-3,,,P,
Systematic_Generation,,1e+19,ZnSe:P_1.0e+19,,Inherited,,,,,,,,,DOPED_004970,,,Doped_Semiconductor,,,ZnSe_P,ZnSe + P @ 1.0e+19 cm^-3,,,P,
Systematic_Generation,,5e+19,ZnSe:P_5.0e+19,,Inherited,,,,,,,,,DOPED_004971,,,Doped_Semiconductor,,,ZnSe_P,ZnSe + P @ 5.0e+19 cm^-3,,,P,
Systematic_Generation,,1e+20,ZnSe:P_1.0e+20,,Inherited,,,,,,,,,DOPED_004972,,,Doped_Semiconductor,,,ZnSe_P,ZnSe + P @ 1.0e+20 cm^-3,,,P,
Systematic_Generation,,1e+21,ZnSe:P_1.0e+21,,Inherited,,,,,,,,,DOPED_004973,,,Doped_Semiconductor,,,ZnSe_P,ZnSe + P @ 1.0e+21 cm^-3,,,P,
Systematic_Generation,,1000000000000000.0,ZnSe:As_1.0e+15,,Inherited,,,,,,,,,DOPED_004974,,,Doped_Semiconductor,,,ZnSe_As,ZnSe + As @ 1.0e+15 cm^-3,,,As,
Systematic_Generation,,5000000000000000.0,ZnSe:As_5.0e+15,,Inherited,,,,,,,,,DOPED_004975,,,Doped_Semiconductor,,,ZnSe_As,ZnSe + As @ 5.0e+15 cm^-3,,,As,
Systematic_Generation,,1e+16,ZnSe:As_1.0e+16,,Inherited,,,,,,,,,DOPED_004976,,,Doped_Semiconductor,,,ZnSe_As,ZnSe + As @ 1.0e+16 cm^-3,,,As,
Systematic_Generation,,5e+16,ZnSe:As_5.0e+16,,Inherited,,,,,,,,,DOPED_004977,,,Doped_Semiconductor,,,ZnSe_As,ZnSe + As @ 5.0e+16 cm^-3,,,As,
Systematic_Generation,,1e+17,ZnSe:As_1.0e+17,,Inherited,,,,,,,,,DOPED_004978,,,Doped_Semiconductor,,,ZnSe_As,ZnSe + As @ 1.0e+17 cm^-3,,,As,
Systematic_Generation,,5e+17,ZnSe:As_5.0e+17,,Inherited,,,,,,,,,DOPED_004979,,,Doped_Semiconductor,,,ZnSe_As,ZnSe + As @ 5.0e+17 cm^-3,,,As,
Systematic_Generation,,1e+18,ZnSe:As_1.0e+18,,Inherited,,,,,,,,,DOPED_004980,,,Doped_Semiconductor,,,ZnSe_As,ZnSe + As @ 1.0e+18 cm^-3,,,As,
Systematic_Generation,,5e+18,ZnSe:As_5.0e+18,,Inherited,,,,,,,,,DOPED_004981,,,Doped_Semiconductor,,,ZnSe_As,ZnSe + As @ 5.0e+18 cm^-3,,,As,
Systematic_Generation,,1e+19,ZnSe:As_1.0e+19,,Inherited,,,,,,,,,DOPED_004982,,,Doped_Semiconductor,,,ZnSe_As,ZnSe + As @ 1.0e+19 cm^-3,,,As,
Systematic_Generation,,5e+19,ZnSe:As_5.0e+19,,Inherited,,,,,,,,,DOPED_004983,,,Doped_Semiconductor,,,ZnSe_As,ZnSe + As @ 5.0e+19 cm^-3,,,As,
Systematic_Generation,,1e+20,ZnSe:As_1.0e+20,,Inherited,,,,,,,,,DOPED_004984,,,Doped_Semiconductor,,,ZnSe_As,ZnSe + As @ 1.0e+20 cm^-3,,,As,
Systematic_Generation,,1e+21,ZnSe:As_1.0e+21,,Inherited,,,,,,,,,DOPED_004985,,,Doped_Semiconductor,,,ZnSe_As,ZnSe + As @ 1.0e+21 cm^-3,,,As,
Systematic_Generation,,1000000000000000.0,ZnSe:Sb_1.0e+15,,Inherited,,,,,,,,,DOPED_004986,,,Doped_Semiconductor,,,ZnSe_Sb,ZnSe + Sb @ 1.0e+15 cm^-3,,,Sb,
Systematic_Generation,,5000000000000000.0,ZnSe:Sb_5.0e+15,,Inherited,,,,,,,,,DOPED_004987,,,Doped_Semiconductor,,,ZnSe_Sb,ZnSe + Sb @ 5.0e+15 cm^-3,,,Sb,
Systematic_Generation,,1e+16,ZnSe:Sb_1.0e+16,,Inherited,,,,,,,,,DOPED_004988,,,Doped_Semiconductor,,,ZnSe_Sb,ZnSe + Sb @ 1.0e+16 cm^-3,,,Sb,
Systematic_Generation,,5e+16,ZnSe:Sb_5.0e+16,,Inherited,,,,,,,,,DOPED_004989,,,Doped_Semiconductor,,,ZnSe_Sb,ZnSe + Sb @ 5.0e+16 cm^-3,,,Sb,
Systematic_Generation,,1e+17,ZnSe:Sb_1.0e+17,,Inherited,,,,,,,,,DOPED_004990,,,Doped_Semiconductor,,,ZnSe_Sb,ZnSe + Sb @ 1.0e+17 cm^-3,,,Sb,
Systematic_Generation,,5e+17,ZnSe:Sb_5.0e+17,,Inherited,,,,,,,,,DOPED_004991,,,Doped_Semiconductor,,,ZnSe_Sb,ZnSe + Sb @ 5.0e+17 cm^-3,,,Sb,
Systematic_Generation,,1e+18,ZnSe:Sb_1.0e+18,,Inherited,,,,,,,,,DOPED_004992,,,Doped_Semiconductor,,,ZnSe_Sb,ZnSe + Sb @ 1.0e+18 cm^-3,,,Sb,
Systematic_Generation,,5e+18,ZnSe:Sb_5.0e+18,,Inherited,,,,,,,,,DOPED_004993,,,Doped_Semiconductor,,,ZnSe_Sb,ZnSe + Sb @ 5.0e+18 cm^-3,,,Sb,
Systematic_Generation,,1e+19,ZnSe:Sb_1.0e+19,,Inherited,,,,,,,,,DOPED_004994,,,Doped_Semiconductor,,,ZnSe_Sb,ZnSe + Sb @ 1.0e+19 cm^-3,,,Sb,
Systematic_Generation,,5e+19,ZnSe:Sb_5.0e+19,,Inherited,,,,,,,,,DOPED_004995,,,Doped_Semiconductor,,,ZnSe_Sb,ZnSe + Sb @ 5.0e+19 cm^-3,,,Sb,
Systematic_Generation,,1e+20,ZnSe:Sb_1.0e+20,,Inherited,,,,,,,,,DOPED_004996,,,Doped_Semiconductor,,,ZnSe_Sb,ZnSe + Sb @ 1.0e+20 cm^-3,,,Sb,
Systematic_Generation,,1e+21,ZnSe:Sb_1.0e+21,,Inherited,,,,,,,,,DOPED_004997,,,Doped_Semiconductor,,,ZnSe_Sb,ZnSe + Sb @ 1.0e+21 cm^-3,,,Sb,
Systematic_Generation,,1000000000000000.0,ZnSe:N_1.0e+15,,Inherited,,,,,,,,,DOPED_004998,,,Doped_Semiconductor,,,ZnSe_N,ZnSe + N @ 1.0e+15 cm^-3,,,N,
Systematic_Generation,,5000000000000000.0,ZnSe:N_5.0e+15,,Inherited,,,,,,,,,DOPED_004999,,,Doped_Semiconductor,,,ZnSe_N,ZnSe + N @ 5.0e+15 cm^-3,,,N,
Systematic_Generation,,1e+16,ZnSe:N_1.0e+16,,Inherited,,,,,,,,,DOPED_005000,,,Doped_Semiconductor,,,ZnSe_N,ZnSe + N @ 1.0e+16 cm^-3,,,N,
Systematic_Generation,,5e+16,ZnSe:N_5.0e+16,,Inherited,,,,,,,,,DOPED_005001,,,Doped_Semiconductor,,,ZnSe_N,ZnSe + N @ 5.0e+16 cm^-3,,,N,
Systematic_Generation,,1e+17,ZnSe:N_1.0e+17,,Inherited,,,,,,,,,DOPED_005002,,,Doped_Semiconductor,,,ZnSe_N,ZnSe + N @ 1.0e+17 cm^-3,,,N,
Systematic_Generation,,5e+17,ZnSe:N_5.0e+17,,Inherited,,,,,,,,,DOPED_005003,,,Doped_Semiconductor,,,ZnSe_N,ZnSe + N @ 5.0e+17 cm^-3,,,N,
Systematic_Generation,,1e+18,ZnSe:N_1.0e+18,,Inherited,,,,,,,,,DOPED_005004,,,Doped_Semiconductor,,,ZnSe_N,ZnSe + N @ 1.0e+18 cm^-3,,,N,
Systematic_Generation,,5e+18,ZnSe:N_5.0e+18,,Inherited,,,,,,,,,DOPED_005005,,,Doped_Semiconductor,,,ZnSe_N,ZnSe + N @ 5.0e+18 cm^-3,,,N,
Systematic_Generation,,1e+19,ZnSe:N_1.0e+19,,Inherited,,,,,,,,,DOPED_005006,,,Doped_Semiconductor,,,ZnSe_N,ZnSe + N @ 1.0e+19 cm^-3,,,N,
Systematic_Generation,,5e+19,ZnSe:N_5.0e+19,,Inherited,,,,,,,,,DOPED_005007,,,Doped_Semiconductor,,,ZnSe_N,ZnSe + N @ 5.0e+19 cm^-3,,,N,
Systematic_Generation,,1e+20,ZnSe:N_1.0e+20,,Inherited,,,,,,,,,DOPED_005008,,,Doped_Semiconductor,,,ZnSe_N,ZnSe + N @ 1.0e+20 cm^-3,,,N,
Systematic_Generation,,1e+21,ZnSe:N_1.0e+21,,Inherited,,,,,,,,,DOPED_005009,,,Doped_Semiconductor,,,ZnSe_N,ZnSe + N @ 1.0e+21 cm^-3,,,N,
Systematic_Generation,,1000000000000000.0,ZnSe:Al_1.0e+15,,Inherited,,,,,,,,,DOPED_005010,,,Doped_Semiconductor,,,ZnSe_Al,ZnSe + Al @ 1.0e+15 cm^-3,,,Al,
Systematic_Generation,,5000000000000000.0,ZnSe:Al_5.0e+15,,Inherited,,,,,,,,,DOPED_005011,,,Doped_Semiconductor,,,ZnSe_Al,ZnSe + Al @ 5.0e+15 cm^-3,,,Al,
Systematic_Generation,,1e+16,ZnSe:Al_1.0e+16,,Inherited,,,,,,,,,DOPED_005012,,,Doped_Semiconductor,,,ZnSe_Al,ZnSe + Al @ 1.0e+16 cm^-3,,,Al,
Systematic_Generation,,5e+16,ZnSe:Al_5.0e+16,,Inherited,,,,,,,,,DOPED_005013,,,Doped_Semiconductor,,,ZnSe_Al,ZnSe + Al @ 5.0e+16 cm^-3,,,Al,
Systematic_Generation,,1e+17,ZnSe:Al_1.0e+17,,Inherited,,,,,,,,,DOPED_005014,,,Doped_Semiconductor,,,ZnSe_Al,ZnSe + Al @ 1.0e+17 cm^-3,,,Al,
Systematic_Generation,,5e+17,ZnSe:Al_5.0e+17,,Inherited,,,,,,,,,DOPED_005015,,,Doped_Semiconductor,,,ZnSe_Al,ZnSe + Al @ 5.0e+17 cm^-3,,,Al,
Systematic_Generation,,1e+18,ZnSe:Al_1.0e+18,,Inherited,,,,,,,,,DOPED_005016,,,Doped_Semiconductor,,,ZnSe_Al,ZnSe + Al @ 1.0e+18 cm^-3,,,Al,
Systematic_Generation,,5e+18,ZnSe:Al_5.0e+18,,Inherited,,,,,,,,,DOPED_005017,,,Doped_Semiconductor,,,ZnSe_Al,ZnSe + Al @ 5.0e+18 cm^-3,,,Al,
Systematic_Generation,,1e+19,ZnSe:Al_1.0e+19,,Inherited,,,,,,,,,DOPED_005018,,,Doped_Semiconductor,,,ZnSe_Al,ZnSe + Al @ 1.0e+19 cm^-3,,,Al,
Systematic_Generation,,5e+19,ZnSe:Al_5.0e+19,,Inherited,,,,,,,,,DOPED_005019,,,Doped_Semiconductor,,,ZnSe_Al,ZnSe + Al @ 5.0e+19 cm^-3,,,Al,
Systematic_Generation,,1e+20,ZnSe:Al_1.0e+20,,Inherited,,,,,,,,,DOPED_005020,,,Doped_Semiconductor,,,ZnSe_Al,ZnSe + Al @ 1.0e+20 cm^-3,,,Al,
Systematic_Generation,,1e+21,ZnSe:Al_1.0e+21,,Inherited,,,,,,,,,DOPED_005021,,,Doped_Semiconductor,,,ZnSe_Al,ZnSe + Al @ 1.0e+21 cm^-3,,,Al,
Systematic_Generation,,1000000000000000.0,ZnSe:Ga_1.0e+15,,Inherited,,,,,,,,,DOPED_005022,,,Doped_Semiconductor,,,ZnSe_Ga,ZnSe + Ga @ 1.0e+15 cm^-3,,,Ga,
Systematic_Generation,,5000000000000000.0,ZnSe:Ga_5.0e+15,,Inherited,,,,,,,,,DOPED_005023,,,Doped_Semiconductor,,,ZnSe_Ga,ZnSe + Ga @ 5.0e+15 cm^-3,,,Ga,
Systematic_Generation,,1e+16,ZnSe:Ga_1.0e+16,,Inherited,,,,,,,,,DOPED_005024,,,Doped_Semiconductor,,,ZnSe_Ga,ZnSe + Ga @ 1.0e+16 cm^-3,,,Ga,
Systematic_Generation,,5e+16,ZnSe:Ga_5.0e+16,,Inherited,,,,,,,,,DOPED_005025,,,Doped_Semiconductor,,,ZnSe_Ga,ZnSe + Ga @ 5.0e+16 cm^-3,,,Ga,
Systematic_Generation,,1e+17,ZnSe:Ga_1.0e+17,,Inherited,,,,,,,,,DOPED_005026,,,Doped_Semiconductor,,,ZnSe_Ga,ZnSe + Ga @ 1.0e+17 cm^-3,,,Ga,
Systematic_Generation,,5e+17,ZnSe:Ga_5.0e+17,,Inherited,,,,,,,,,DOPED_005027,,,Doped_Semiconductor,,,ZnSe_Ga,ZnSe + Ga @ 5.0e+17 cm^-3,,,Ga,
Systematic_Generation,,1e+18,ZnSe:Ga_1.0e+18,,Inherited,,,,,,,,,DOPED_005028,,,Doped_Semiconductor,,,ZnSe_Ga,ZnSe + Ga @ 1.0e+18 cm^-3,,,Ga,
Systematic_Generation,,5e+18,ZnSe:Ga_5.0e+18,,Inherited,,,,,,,,,DOPED_005029,,,Doped_Semiconductor,,,ZnSe_Ga,ZnSe + Ga @ 5.0e+18 cm^-3,,,Ga,
Systematic_Generation,,1e+19,ZnSe:Ga_1.0e+19,,Inherited,,,,,,,,,DOPED_005030,,,Doped_Semiconductor,,,ZnSe_Ga,ZnSe + Ga @ 1.0e+19 cm^-3,,,Ga,
Systematic_Generation,,5e+19,ZnSe:Ga_5.0e+19,,Inherited,,,,,,,,,DOPED_005031,,,Doped_Semiconductor,,,ZnSe_Ga,ZnSe + Ga @ 5.0e+19 cm^-3,,,Ga,
Systematic_Generation,,1e+20,ZnSe:Ga_1.0e+20,,Inherited,,,,,,,,,DOPED_005032,,,Doped_Semiconductor,,,ZnSe_Ga,ZnSe + Ga @ 1.0e+20 cm^-3,,,Ga,
Systematic_Generation,,1e+21,ZnSe:Ga_1.0e+21,,Inherited,,,,,,,,,DOPED_005033,,,Doped_Semiconductor,,,ZnSe_Ga,ZnSe + Ga @ 1.0e+21 cm^-3,,,Ga,
Systematic_Generation,,1000000000000000.0,ZnSe:In_1.0e+15,,Inherited,,,,,,,,,DOPED_005034,,,Doped_Semiconductor,,,ZnSe_In,ZnSe + In @ 1.0e+15 cm^-3,,,In,
Systematic_Generation,,5000000000000000.0,ZnSe:In_5.0e+15,,Inherited,,,,,,,,,DOPED_005035,,,Doped_Semiconductor,,,ZnSe_In,ZnSe + In @ 5.0e+15 cm^-3,,,In,
Systematic_Generation,,1e+16,ZnSe:In_1.0e+16,,Inherited,,,,,,,,,DOPED_005036,,,Doped_Semiconductor,,,ZnSe_In,ZnSe + In @ 1.0e+16 cm^-3,,,In,
Systematic_Generation,,5e+16,ZnSe:In_5.0e+16,,Inherited,,,,,,,,,DOPED_005037,,,Doped_Semiconductor,,,ZnSe_In,ZnSe + In @ 5.0e+16 cm^-3,,,In,
Systematic_Generation,,1e+17,ZnSe:In_1.0e+17,,Inherited,,,,,,,,,DOPED_005038,,,Doped_Semiconductor,,,ZnSe_In,ZnSe + In @ 1.0e+17 cm^-3,,,In,
Systematic_Generation,,5e+17,ZnSe:In_5.0e+17,,Inherited,,,,,,,,,DOPED_005039,,,Doped_Semiconductor,,,ZnSe_In,ZnSe + In @ 5.0e+17 cm^-3,,,In,
Systematic_Generation,,1e+18,ZnSe:In_1.0e+18,,Inherited,,,,,,,,,DOPED_005040,,,Doped_Semiconductor,,,ZnSe_In,ZnSe + In @ 1.0e+18 cm^-3,,,In,
Systematic_Generation,,5e+18,ZnSe:In_5.0e+18,,Inherited,,,,,,,,,DOPED_005041,,,Doped_Semiconductor,,,ZnSe_In,ZnSe + In @ 5.0e+18 cm^-3,,,In,
Systematic_Generation,,1e+19,ZnSe:In_1.0e+19,,Inherited,,,,,,,,,DOPED_005042,,,Doped_Semiconductor,,,ZnSe_In,ZnSe + In @ 1.0e+19 cm^-3,,,In,
Systematic_Generation,,5e+19,ZnSe:In_5.0e+19,,Inherited,,,,,,,,,DOPED_005043,,,Doped_Semiconductor,,,ZnSe_In,ZnSe + In @ 5.0e+19 cm^-3,,,In,
Systematic_Generation,,1e+20,ZnSe:In_1.0e+20,,Inherited,,,,,,,,,DOPED_005044,,,Doped_Semiconductor,,,ZnSe_In,ZnSe + In @ 1.0e+20 cm^-3,,,In,
Systematic_Generation,,1e+21,ZnSe:In_1.0e+21,,Inherited,,,,,,,,,DOPED_005045,,,Doped_Semiconductor,,,ZnSe_In,ZnSe + In @ 1.0e+21 cm^-3,,,In,
Systematic_Generation,,1000000000000000.0,ZnSe:Bi_1.0e+15,,Inherited,,,,,,,,,DOPED_005046,,,Doped_Semiconductor,,,ZnSe_Bi,ZnSe + Bi @ 1.0e+15 cm^-3,,,Bi,
Systematic_Generation,,5000000000000000.0,ZnSe:Bi_5.0e+15,,Inherited,,,,,,,,,DOPED_005047,,,Doped_Semiconductor,,,ZnSe_Bi,ZnSe + Bi @ 5.0e+15 cm^-3,,,Bi,
Systematic_Generation,,1e+16,ZnSe:Bi_1.0e+16,,Inherited,,,,,,,,,DOPED_005048,,,Doped_Semiconductor,,,ZnSe_Bi,ZnSe + Bi @ 1.0e+16 cm^-3,,,Bi,
Systematic_Generation,,5e+16,ZnSe:Bi_5.0e+16,,Inherited,,,,,,,,,DOPED_005049,,,Doped_Semiconductor,,,ZnSe_Bi,ZnSe + Bi @ 5.0e+16 cm^-3,,,Bi,
Systematic_Generation,,1e+17,ZnSe:Bi_1.0e+17,,Inherited,,,,,,,,,DOPED_005050,,,Doped_Semiconductor,,,ZnSe_Bi,ZnSe + Bi @ 1.0e+17 cm^-3,,,Bi,
Systematic_Generation,,5e+17,ZnSe:Bi_5.0e+17,,Inherited,,,,,,,,,DOPED_005051,,,Doped_Semiconductor,,,ZnSe_Bi,ZnSe + Bi @ 5.0e+17 cm^-3,,,Bi,
Systematic_Generation,,1e+18,ZnSe:Bi_1.0e+18,,Inherited,,,,,,,,,DOPED_005052,,,Doped_Semiconductor,,,ZnSe_Bi,ZnSe + Bi @ 1.0e+18 cm^-3,,,Bi,
Systematic_Generation,,5e+18,ZnSe:Bi_5.0e+18,,Inherited,,,,,,,,,DOPED_005053,,,Doped_Semiconductor,,,ZnSe_Bi,ZnSe + Bi @ 5.0e+18 cm^-3,,,Bi,
Systematic_Generation,,1e+19,ZnSe:Bi_1.0e+19,,Inherited,,,,,,,,,DOPED_005054,,,Doped_Semiconductor,,,ZnSe_Bi,ZnSe + Bi @ 1.0e+19 cm^-3,,,Bi,
Systematic_Generation,,5e+19,ZnSe:Bi_5.0e+19,,Inherited,,,,,,,,,DOPED_005055,,,Doped_Semiconductor,,,ZnSe_Bi,ZnSe + Bi @ 5.0e+19 cm^-3,,,Bi,
Systematic_Generation,,1e+20,ZnSe:Bi_1.0e+20,,Inherited,,,,,,,,,DOPED_005056,,,Doped_Semiconductor,,,ZnSe_Bi,ZnSe + Bi @ 1.0e+20 cm^-3,,,Bi,
Systematic_Generation,,1e+21,ZnSe:Bi_1.0e+21,,Inherited,,,,,,,,,DOPED_005057,,,Doped_Semiconductor,,,ZnSe_Bi,ZnSe + Bi @ 1.0e+21 cm^-3,,,Bi,
Systematic_Generation,,1000000000000000.0,ZnSe:Li_1.0e+15,,Inherited,,,,,,,,,DOPED_005058,,,Doped_Semiconductor,,,ZnSe_Li,ZnSe + Li @ 1.0e+15 cm^-3,,,Li,
Systematic_Generation,,5000000000000000.0,ZnSe:Li_5.0e+15,,Inherited,,,,,,,,,DOPED_005059,,,Doped_Semiconductor,,,ZnSe_Li,ZnSe + Li @ 5.0e+15 cm^-3,,,Li,
Systematic_Generation,,1e+16,ZnSe:Li_1.0e+16,,Inherited,,,,,,,,,DOPED_005060,,,Doped_Semiconductor,,,ZnSe_Li,ZnSe + Li @ 1.0e+16 cm^-3,,,Li,
Systematic_Generation,,5e+16,ZnSe:Li_5.0e+16,,Inherited,,,,,,,,,DOPED_005061,,,Doped_Semiconductor,,,ZnSe_Li,ZnSe + Li @ 5.0e+16 cm^-3,,,Li,
Systematic_Generation,,1e+17,ZnSe:Li_1.0e+17,,Inherited,,,,,,,,,DOPED_005062,,,Doped_Semiconductor,,,ZnSe_Li,ZnSe + Li @ 1.0e+17 cm^-3,,,Li,
Systematic_Generation,,5e+17,ZnSe:Li_5.0e+17,,Inherited,,,,,,,,,DOPED_005063,,,Doped_Semiconductor,,,ZnSe_Li,ZnSe + Li @ 5.0e+17 cm^-3,,,Li,
Systematic_Generation,,1e+18,ZnSe:Li_1.0e+18,,Inherited,,,,,,,,,DOPED_005064,,,Doped_Semiconductor,,,ZnSe_Li,ZnSe + Li @ 1.0e+18 cm^-3,,,Li,
Systematic_Generation,,5e+18,ZnSe:Li_5.0e+18,,Inherited,,,,,,,,,DOPED_005065,,,Doped_Semiconductor,,,ZnSe_Li,ZnSe + Li @ 5.0e+18 cm^-3,,,Li,
Systematic_Generation,,1e+19,ZnSe:Li_1.0e+19,,Inherited,,,,,,,,,DOPED_005066,,,Doped_Semiconductor,,,ZnSe_Li,ZnSe + Li @ 1.0e+19 cm^-3,,,Li,
Systematic_Generation,,5e+19,ZnSe:Li_5.0e+19,,Inherited,,,,,,,,,DOPED_005067,,,Doped_Semiconductor,,,ZnSe_Li,ZnSe + Li @ 5.0e+19 cm^-3,,,Li,
Systematic_Generation,,1e+20,ZnSe:Li_1.0e+20,,Inherited,,,,,,,,,DOPED_005068,,,Doped_Semiconductor,,,ZnSe_Li,ZnSe + Li @ 1.0e+20 cm^-3,,,Li,
Systematic_Generation,,1e+21,ZnSe:Li_1.0e+21,,Inherited,,,,,,,,,DOPED_005069,,,Doped_Semiconductor,,,ZnSe_Li,ZnSe + Li @ 1.0e+21 cm^-3,,,Li,
Systematic_Generation,,1000000000000000.0,ZnSe:S_1.0e+15,,Inherited,,,,,,,,,DOPED_005070,,,Doped_Semiconductor,,,ZnSe_S,ZnSe + S @ 1.0e+15 cm^-3,,,S,
Systematic_Generation,,5000000000000000.0,ZnSe:S_5.0e+15,,Inherited,,,,,,,,,DOPED_005071,,,Doped_Semiconductor,,,ZnSe_S,ZnSe + S @ 5.0e+15 cm^-3,,,S,