source,n_elements,doping_concentration,name,termination,space_group,doping_level,volume_fraction,weight_percent,lattice_c,temperature,reinforcement,matrix,layers,material_id,molecular_weight,deposition_method,type,lattice_b,pdi,formula,composition,lattice_a,thickness_nm,dopant,substrate
Systematic_Generation,,1e+16,ZnSe:S_1.0e+16,,Inherited,,,,,,,,,DOPED_005072,,,Doped_Semiconductor,,,ZnSe_S,ZnSe + S @ 1.0e+16 cm^-3,,,S,
Systematic_Generation,,5e+16,ZnSe:S_5.0e+16,,Inherited,,,,,,,,,DOPED_005073,,,Doped_Semiconductor,,,ZnSe_S,ZnSe + S @ 5.0e+16 cm^-3,,,S,
Systematic_Generation,,1e+17,ZnSe:S_1.0e+17,,Inherited,,,,,,,,,DOPED_005074,,,Doped_Semiconductor,,,ZnSe_S,ZnSe + S @ 1.0e+17 cm^-3,,,S,
Systematic_Generation,,5e+17,ZnSe:S_5.0e+17,,Inherited,,,,,,,,,DOPED_005075,,,Doped_Semiconductor,,,ZnSe_S,ZnSe + S @ 5.0e+17 cm^-3,,,S,
Systematic_Generation,,1e+18,ZnSe:S_1.0e+18,,Inherited,,,,,,,,,DOPED_005076,,,Doped_Semiconductor,,,ZnSe_S,ZnSe + S @ 1.0e+18 cm^-3,,,S,
Systematic_Generation,,5e+18,ZnSe:S_5.0e+18,,Inherited,,,,,,,,,DOPED_005077,,,Doped_Semiconductor,,,ZnSe_S,ZnSe + S @ 5.0e+18 cm^-3,,,S,
Systematic_Generation,,1e+19,ZnSe:S_1.0e+19,,Inherited,,,,,,,,,DOPED_005078,,,Doped_Semiconductor,,,ZnSe_S,ZnSe + S @ 1.0e+19 cm^-3,,,S,
Systematic_Generation,,5e+19,ZnSe:S_5.0e+19,,Inherited,,,,,,,,,DOPED_005079,,,Doped_Semiconductor,,,ZnSe_S,ZnSe + S @ 5.0e+19 cm^-3,,,S,
Systematic_Generation,,1e+20,ZnSe:S_1.0e+20,,Inherited,,,,,,,,,DOPED_005080,,,Doped_Semiconductor,,,ZnSe_S,ZnSe + S @ 1.0e+20 cm^-3,,,S,
Systematic_Generation,,1e+21,ZnSe:S_1.0e+21,,Inherited,,,,,,,,,DOPED_005081,,,Doped_Semiconductor,,,ZnSe_S,ZnSe + S @ 1.0e+21 cm^-3,,,S,
Systematic_Generation,,1000000000000000.0,ZnSe:Se_1.0e+15,,Inherited,,,,,,,,,DOPED_005082,,,Doped_Semiconductor,,,ZnSe_Se,ZnSe + Se @ 1.0e+15 cm^-3,,,Se,
Systematic_Generation,,5000000000000000.0,ZnSe:Se_5.0e+15,,Inherited,,,,,,,,,DOPED_005083,,,Doped_Semiconductor,,,ZnSe_Se,ZnSe + Se @ 5.0e+15 cm^-3,,,Se,
Systematic_Generation,,1e+16,ZnSe:Se_1.0e+16,,Inherited,,,,,,,,,DOPED_005084,,,Doped_Semiconductor,,,ZnSe_Se,ZnSe + Se @ 1.0e+16 cm^-3,,,Se,
Systematic_Generation,,5e+16,ZnSe:Se_5.0e+16,,Inherited,,,,,,,,,DOPED_005085,,,Doped_Semiconductor,,,ZnSe_Se,ZnSe + Se @ 5.0e+16 cm^-3,,,Se,
Systematic_Generation,,1e+17,ZnSe:Se_1.0e+17,,Inherited,,,,,,,,,DOPED_005086,,,Doped_Semiconductor,,,ZnSe_Se,ZnSe + Se @ 1.0e+17 cm^-3,,,Se,
Systematic_Generation,,5e+17,ZnSe:Se_5.0e+17,,Inherited,,,,,,,,,DOPED_005087,,,Doped_Semiconductor,,,ZnSe_Se,ZnSe + Se @ 5.0e+17 cm^-3,,,Se,
Systematic_Generation,,1e+18,ZnSe:Se_1.0e+18,,Inherited,,,,,,,,,DOPED_005088,,,Doped_Semiconductor,,,ZnSe_Se,ZnSe + Se @ 1.0e+18 cm^-3,,,Se,
Systematic_Generation,,5e+18,ZnSe:Se_5.0e+18,,Inherited,,,,,,,,,DOPED_005089,,,Doped_Semiconductor,,,ZnSe_Se,ZnSe + Se @ 5.0e+18 cm^-3,,,Se,
Systematic_Generation,,1e+19,ZnSe:Se_1.0e+19,,Inherited,,,,,,,,,DOPED_005090,,,Doped_Semiconductor,,,ZnSe_Se,ZnSe + Se @ 1.0e+19 cm^-3,,,Se,
Systematic_Generation,,5e+19,ZnSe:Se_5.0e+19,,Inherited,,,,,,,,,DOPED_005091,,,Doped_Semiconductor,,,ZnSe_Se,ZnSe + Se @ 5.0e+19 cm^-3,,,Se,
Systematic_Generation,,1e+20,ZnSe:Se_1.0e+20,,Inherited,,,,,,,,,DOPED_005092,,,Doped_Semiconductor,,,ZnSe_Se,ZnSe + Se @ 1.0e+20 cm^-3,,,Se,
Systematic_Generation,,1e+21,ZnSe:Se_1.0e+21,,Inherited,,,,,,,,,DOPED_005093,,,Doped_Semiconductor,,,ZnSe_Se,ZnSe + Se @ 1.0e+21 cm^-3,,,Se,
Systematic_Generation,,1000000000000000.0,ZnSe:Te_1.0e+15,,Inherited,,,,,,,,,DOPED_005094,,,Doped_Semiconductor,,,ZnSe_Te,ZnSe + Te @ 1.0e+15 cm^-3,,,Te,
Systematic_Generation,,5000000000000000.0,ZnSe:Te_5.0e+15,,Inherited,,,,,,,,,DOPED_005095,,,Doped_Semiconductor,,,ZnSe_Te,ZnSe + Te @ 5.0e+15 cm^-3,,,Te,
Systematic_Generation,,1e+16,ZnSe:Te_1.0e+16,,Inherited,,,,,,,,,DOPED_005096,,,Doped_Semiconductor,,,ZnSe_Te,ZnSe + Te @ 1.0e+16 cm^-3,,,Te,
Systematic_Generation,,5e+16,ZnSe:Te_5.0e+16,,Inherited,,,,,,,,,DOPED_005097,,,Doped_Semiconductor,,,ZnSe_Te,ZnSe + Te @ 5.0e+16 cm^-3,,,Te,
Systematic_Generation,,1e+17,ZnSe:Te_1.0e+17,,Inherited,,,,,,,,,DOPED_005098,,,Doped_Semiconductor,,,ZnSe_Te,ZnSe + Te @ 1.0e+17 cm^-3,,,Te,
Systematic_Generation,,5e+17,ZnSe:Te_5.0e+17,,Inherited,,,,,,,,,DOPED_005099,,,Doped_Semiconductor,,,ZnSe_Te,ZnSe + Te @ 5.0e+17 cm^-3,,,Te,
Systematic_Generation,,1e+18,ZnSe:Te_1.0e+18,,Inherited,,,,,,,,,DOPED_005100,,,Doped_Semiconductor,,,ZnSe_Te,ZnSe + Te @ 1.0e+18 cm^-3,,,Te,
Systematic_Generation,,5e+18,ZnSe:Te_5.0e+18,,Inherited,,,,,,,,,DOPED_005101,,,Doped_Semiconductor,,,ZnSe_Te,ZnSe + Te @ 5.0e+18 cm^-3,,,Te,
Systematic_Generation,,1e+19,ZnSe:Te_1.0e+19,,Inherited,,,,,,,,,DOPED_005102,,,Doped_Semiconductor,,,ZnSe_Te,ZnSe + Te @ 1.0e+19 cm^-3,,,Te,
Systematic_Generation,,5e+19,ZnSe:Te_5.0e+19,,Inherited,,,,,,,,,DOPED_005103,,,Doped_Semiconductor,,,ZnSe_Te,ZnSe + Te @ 5.0e+19 cm^-3,,,Te,
Systematic_Generation,,1e+20,ZnSe:Te_1.0e+20,,Inherited,,,,,,,,,DOPED_005104,,,Doped_Semiconductor,,,ZnSe_Te,ZnSe + Te @ 1.0e+20 cm^-3,,,Te,
Systematic_Generation,,1e+21,ZnSe:Te_1.0e+21,,Inherited,,,,,,,,,DOPED_005105,,,Doped_Semiconductor,,,ZnSe_Te,ZnSe + Te @ 1.0e+21 cm^-3,,,Te,
Systematic_Generation,,1000000000000000.0,CdS:B_1.0e+15,,Inherited,,,,,,,,,DOPED_005106,,,Doped_Semiconductor,,,CdS_B,CdS + B @ 1.0e+15 cm^-3,,,B,
Systematic_Generation,,5000000000000000.0,CdS:B_5.0e+15,,Inherited,,,,,,,,,DOPED_005107,,,Doped_Semiconductor,,,CdS_B,CdS + B @ 5.0e+15 cm^-3,,,B,
Systematic_Generation,,1e+16,CdS:B_1.0e+16,,Inherited,,,,,,,,,DOPED_005108,,,Doped_Semiconductor,,,CdS_B,CdS + B @ 1.0e+16 cm^-3,,,B,
Systematic_Generation,,5e+16,CdS:B_5.0e+16,,Inherited,,,,,,,,,DOPED_005109,,,Doped_Semiconductor,,,CdS_B,CdS + B @ 5.0e+16 cm^-3,,,B,
Systematic_Generation,,1e+17,CdS:B_1.0e+17,,Inherited,,,,,,,,,DOPED_005110,,,Doped_Semiconductor,,,CdS_B,CdS + B @ 1.0e+17 cm^-3,,,B,
Systematic_Generation,,5e+17,CdS:B_5.0e+17,,Inherited,,,,,,,,,DOPED_005111,,,Doped_Semiconductor,,,CdS_B,CdS + B @ 5.0e+17 cm^-3,,,B,
Systematic_Generation,,1e+18,CdS:B_1.0e+18,,Inherited,,,,,,,,,DOPED_005112,,,Doped_Semiconductor,,,CdS_B,CdS + B @ 1.0e+18 cm^-3,,,B,
Systematic_Generation,,5e+18,CdS:B_5.0e+18,,Inherited,,,,,,,,,DOPED_005113,,,Doped_Semiconductor,,,CdS_B,CdS + B @ 5.0e+18 cm^-3,,,B,
Systematic_Generation,,1e+19,CdS:B_1.0e+19,,Inherited,,,,,,,,,DOPED_005114,,,Doped_Semiconductor,,,CdS_B,CdS + B @ 1.0e+19 cm^-3,,,B,
Systematic_Generation,,5e+19,CdS:B_5.0e+19,,Inherited,,,,,,,,,DOPED_005115,,,Doped_Semiconductor,,,CdS_B,CdS + B @ 5.0e+19 cm^-3,,,B,
Systematic_Generation,,1e+20,CdS:B_1.0e+20,,Inherited,,,,,,,,,DOPED_005116,,,Doped_Semiconductor,,,CdS_B,CdS + B @ 1.0e+20 cm^-3,,,B,
Systematic_Generation,,1e+21,CdS:B_1.0e+21,,Inherited,,,,,,,,,DOPED_005117,,,Doped_Semiconductor,,,CdS_B,CdS + B @ 1.0e+21 cm^-3,,,B,
Systematic_Generation,,1000000000000000.0,CdS:P_1.0e+15,,Inherited,,,,,,,,,DOPED_005118,,,Doped_Semiconductor,,,CdS_P,CdS + P @ 1.0e+15 cm^-3,,,P,
Systematic_Generation,,5000000000000000.0,CdS:P_5.0e+15,,Inherited,,,,,,,,,DOPED_005119,,,Doped_Semiconductor,,,CdS_P,CdS + P @ 5.0e+15 cm^-3,,,P,
Systematic_Generation,,1e+16,CdS:P_1.0e+16,,Inherited,,,,,,,,,DOPED_005120,,,Doped_Semiconductor,,,CdS_P,CdS + P @ 1.0e+16 cm^-3,,,P,
Systematic_Generation,,5e+16,CdS:P_5.0e+16,,Inherited,,,,,,,,,DOPED_005121,,,Doped_Semiconductor,,,CdS_P,CdS + P @ 5.0e+16 cm^-3,,,P,
Systematic_Generation,,1e+17,CdS:P_1.0e+17,,Inherited,,,,,,,,,DOPED_005122,,,Doped_Semiconductor,,,CdS_P,CdS + P @ 1.0e+17 cm^-3,,,P,
Systematic_Generation,,5e+17,CdS:P_5.0e+17,,Inherited,,,,,,,,,DOPED_005123,,,Doped_Semiconductor,,,CdS_P,CdS + P @ 5.0e+17 cm^-3,,,P,
Systematic_Generation,,1e+18,CdS:P_1.0e+18,,Inherited,,,,,,,,,DOPED_005124,,,Doped_Semiconductor,,,CdS_P,CdS + P @ 1.0e+18 cm^-3,,,P,
Systematic_Generation,,5e+18,CdS:P_5.0e+18,,Inherited,,,,,,,,,DOPED_005125,,,Doped_Semiconductor,,,CdS_P,CdS + P @ 5.0e+18 cm^-3,,,P,
Systematic_Generation,,1e+19,CdS:P_1.0e+19,,Inherited,,,,,,,,,DOPED_005126,,,Doped_Semiconductor,,,CdS_P,CdS + P @ 1.0e+19 cm^-3,,,P,
Systematic_Generation,,5e+19,CdS:P_5.0e+19,,Inherited,,,,,,,,,DOPED_005127,,,Doped_Semiconductor,,,CdS_P,CdS + P @ 5.0e+19 cm^-3,,,P,
Systematic_Generation,,1e+20,CdS:P_1.0e+20,,Inherited,,,,,,,,,DOPED_005128,,,Doped_Semiconductor,,,CdS_P,CdS + P @ 1.0e+20 cm^-3,,,P,
Systematic_Generation,,1e+21,CdS:P_1.0e+21,,Inherited,,,,,,,,,DOPED_005129,,,Doped_Semiconductor,,,CdS_P,CdS + P @ 1.0e+21 cm^-3,,,P,
Systematic_Generation,,1000000000000000.0,CdS:As_1.0e+15,,Inherited,,,,,,,,,DOPED_005130,,,Doped_Semiconductor,,,CdS_As,CdS + As @ 1.0e+15 cm^-3,,,As,
Systematic_Generation,,5000000000000000.0,CdS:As_5.0e+15,,Inherited,,,,,,,,,DOPED_005131,,,Doped_Semiconductor,,,CdS_As,CdS + As @ 5.0e+15 cm^-3,,,As,
Systematic_Generation,,1e+16,CdS:As_1.0e+16,,Inherited,,,,,,,,,DOPED_005132,,,Doped_Semiconductor,,,CdS_As,CdS + As @ 1.0e+16 cm^-3,,,As,
Systematic_Generation,,5e+16,CdS:As_5.0e+16,,Inherited,,,,,,,,,DOPED_005133,,,Doped_Semiconductor,,,CdS_As,CdS + As @ 5.0e+16 cm^-3,,,As,
Systematic_Generation,,1e+17,CdS:As_1.0e+17,,Inherited,,,,,,,,,DOPED_005134,,,Doped_Semiconductor,,,CdS_As,CdS + As @ 1.0e+17 cm^-3,,,As,
Systematic_Generation,,5e+17,CdS:As_5.0e+17,,Inherited,,,,,,,,,DOPED_005135,,,Doped_Semiconductor,,,CdS_As,CdS + As @ 5.0e+17 cm^-3,,,As,
Systematic_Generation,,1e+18,CdS:As_1.0e+18,,Inherited,,,,,,,,,DOPED_005136,,,Doped_Semiconductor,,,CdS_As,CdS + As @ 1.0e+18 cm^-3,,,As,
Systematic_Generation,,5e+18,CdS:As_5.0e+18,,Inherited,,,,,,,,,DOPED_005137,,,Doped_Semiconductor,,,CdS_As,CdS + As @ 5.0e+18 cm^-3,,,As,
Systematic_Generation,,1e+19,CdS:As_1.0e+19,,Inherited,,,,,,,,,DOPED_005138,,,Doped_Semiconductor,,,CdS_As,CdS + As @ 1.0e+19 cm^-3,,,As,
Systematic_Generation,,5e+19,CdS:As_5.0e+19,,Inherited,,,,,,,,,DOPED_005139,,,Doped_Semiconductor,,,CdS_As,CdS + As @ 5.0e+19 cm^-3,,,As,
Systematic_Generation,,1e+20,CdS:As_1.0e+20,,Inherited,,,,,,,,,DOPED_005140,,,Doped_Semiconductor,,,CdS_As,CdS + As @ 1.0e+20 cm^-3,,,As,
Systematic_Generation,,1e+21,CdS:As_1.0e+21,,Inherited,,,,,,,,,DOPED_005141,,,Doped_Semiconductor,,,CdS_As,CdS + As @ 1.0e+21 cm^-3,,,As,
Systematic_Generation,,1000000000000000.0,CdS:Sb_1.0e+15,,Inherited,,,,,,,,,DOPED_005142,,,Doped_Semiconductor,,,CdS_Sb,CdS + Sb @ 1.0e+15 cm^-3,,,Sb,
Systematic_Generation,,5000000000000000.0,CdS:Sb_5.0e+15,,Inherited,,,,,,,,,DOPED_005143,,,Doped_Semiconductor,,,CdS_Sb,CdS + Sb @ 5.0e+15 cm^-3,,,Sb,
Systematic_Generation,,1e+16,CdS:Sb_1.0e+16,,Inherited,,,,,,,,,DOPED_005144,,,Doped_Semiconductor,,,CdS_Sb,CdS + Sb @ 1.0e+16 cm^-3,,,Sb,
Systematic_Generation,,5e+16,CdS:Sb_5.0e+16,,Inherited,,,,,,,,,DOPED_005145,,,Doped_Semiconductor,,,CdS_Sb,CdS + Sb @ 5.0e+16 cm^-3,,,Sb,
Systematic_Generation,,1e+17,CdS:Sb_1.0e+17,,Inherited,,,,,,,,,DOPED_005146,,,Doped_Semiconductor,,,CdS_Sb,CdS + Sb @ 1.0e+17 cm^-3,,,Sb,
Systematic_Generation,,5e+17,CdS:Sb_5.0e+17,,Inherited,,,,,,,,,DOPED_005147,,,Doped_Semiconductor,,,CdS_Sb,CdS + Sb @ 5.0e+17 cm^-3,,,Sb,
Systematic_Generation,,1e+18,CdS:Sb_1.0e+18,,Inherited,,,,,,,,,DOPED_005148,,,Doped_Semiconductor,,,CdS_Sb,CdS + Sb @ 1.0e+18 cm^-3,,,Sb,
Systematic_Generation,,5e+18,CdS:Sb_5.0e+18,,Inherited,,,,,,,,,DOPED_005149,,,Doped_Semiconductor,,,CdS_Sb,CdS + Sb @ 5.0e+18 cm^-3,,,Sb,
Systematic_Generation,,1e+19,CdS:Sb_1.0e+19,,Inherited,,,,,,,,,DOPED_005150,,,Doped_Semiconductor,,,CdS_Sb,CdS + Sb @ 1.0e+19 cm^-3,,,Sb,
Systematic_Generation,,5e+19,CdS:Sb_5.0e+19,,Inherited,,,,,,,,,DOPED_005151,,,Doped_Semiconductor,,,CdS_Sb,CdS + Sb @ 5.0e+19 cm^-3,,,Sb,
Systematic_Generation,,1e+20,CdS:Sb_1.0e+20,,Inherited,,,,,,,,,DOPED_005152,,,Doped_Semiconductor,,,CdS_Sb,CdS + Sb @ 1.0e+20 cm^-3,,,Sb,
Systematic_Generation,,1e+21,CdS:Sb_1.0e+21,,Inherited,,,,,,,,,DOPED_005153,,,Doped_Semiconductor,,,CdS_Sb,CdS + Sb @ 1.0e+21 cm^-3,,,Sb,
Systematic_Generation,,1000000000000000.0,CdS:N_1.0e+15,,Inherited,,,,,,,,,DOPED_005154,,,Doped_Semiconductor,,,CdS_N,CdS + N @ 1.0e+15 cm^-3,,,N,
Systematic_Generation,,5000000000000000.0,CdS:N_5.0e+15,,Inherited,,,,,,,,,DOPED_005155,,,Doped_Semiconductor,,,CdS_N,CdS + N @ 5.0e+15 cm^-3,,,N,
Systematic_Generation,,1e+16,CdS:N_1.0e+16,,Inherited,,,,,,,,,DOPED_005156,,,Doped_Semiconductor,,,CdS_N,CdS + N @ 1.0e+16 cm^-3,,,N,
Systematic_Generation,,5e+16,CdS:N_5.0e+16,,Inherited,,,,,,,,,DOPED_005157,,,Doped_Semiconductor,,,CdS_N,CdS + N @ 5.0e+16 cm^-3,,,N,
Systematic_Generation,,1e+17,CdS:N_1.0e+17,,Inherited,,,,,,,,,DOPED_005158,,,Doped_Semiconductor,,,CdS_N,CdS + N @ 1.0e+17 cm^-3,,,N,
Systematic_Generation,,5e+17,CdS:N_5.0e+17,,Inherited,,,,,,,,,DOPED_005159,,,Doped_Semiconductor,,,CdS_N,CdS + N @ 5.0e+17 cm^-3,,,N,
Systematic_Generation,,1e+18,CdS:N_1.0e+18,,Inherited,,,,,,,,,DOPED_005160,,,Doped_Semiconductor,,,CdS_N,CdS + N @ 1.0e+18 cm^-3,,,N,
Systematic_Generation,,5e+18,CdS:N_5.0e+18,,Inherited,,,,,,,,,DOPED_005161,,,Doped_Semiconductor,,,CdS_N,CdS + N @ 5.0e+18 cm^-3,,,N,
Systematic_Generation,,1e+19,CdS:N_1.0e+19,,Inherited,,,,,,,,,DOPED_005162,,,Doped_Semiconductor,,,CdS_N,CdS + N @ 1.0e+19 cm^-3,,,N,
Systematic_Generation,,5e+19,CdS:N_5.0e+19,,Inherited,,,,,,,,,DOPED_005163,,,Doped_Semiconductor,,,CdS_N,CdS + N @ 5.0e+19 cm^-3,,,N,
Systematic_Generation,,1e+20,CdS:N_1.0e+20,,Inherited,,,,,,,,,DOPED_005164,,,Doped_Semiconductor,,,CdS_N,CdS + N @ 1.0e+20 cm^-3,,,N,
Systematic_Generation,,1e+21,CdS:N_1.0e+21,,Inherited,,,,,,,,,DOPED_005165,,,Doped_Semiconductor,,,CdS_N,CdS + N @ 1.0e+21 cm^-3,,,N,
Systematic_Generation,,1000000000000000.0,CdS:Al_1.0e+15,,Inherited,,,,,,,,,DOPED_005166,,,Doped_Semiconductor,,,CdS_Al,CdS + Al @ 1.0e+15 cm^-3,,,Al,
Systematic_Generation,,5000000000000000.0,CdS:Al_5.0e+15,,Inherited,,,,,,,,,DOPED_005167,,,Doped_Semiconductor,,,CdS_Al,CdS + Al @ 5.0e+15 cm^-3,,,Al,
Systematic_Generation,,1e+16,CdS:Al_1.0e+16,,Inherited,,,,,,,,,DOPED_005168,,,Doped_Semiconductor,,,CdS_Al,CdS + Al @ 1.0e+16 cm^-3,,,Al,
Systematic_Generation,,5e+16,CdS:Al_5.0e+16,,Inherited,,,,,,,,,DOPED_005169,,,Doped_Semiconductor,,,CdS_Al,CdS + Al @ 5.0e+16 cm^-3,,,Al,
Systematic_Generation,,1e+17,CdS:Al_1.0e+17,,Inherited,,,,,,,,,DOPED_005170,,,Doped_Semiconductor,,,CdS_Al,CdS + Al @ 1.0e+17 cm^-3,,,Al,
Systematic_Generation,,5e+17,CdS:Al_5.0e+17,,Inherited,,,,,,,,,DOPED_005171,,,Doped_Semiconductor,,,CdS_Al,CdS + Al @ 5.0e+17 cm^-3,,,Al,
Systematic_Generation,,1e+18,CdS:Al_1.0e+18,,Inherited,,,,,,,,,DOPED_005172,,,Doped_Semiconductor,,,CdS_Al,CdS + Al @ 1.0e+18 cm^-3,,,Al,
Systematic_Generation,,5e+18,CdS:Al_5.0e+18,,Inherited,,,,,,,,,DOPED_005173,,,Doped_Semiconductor,,,CdS_Al,CdS + Al @ 5.0e+18 cm^-3,,,Al,
Systematic_Generation,,1e+19,CdS:Al_1.0e+19,,Inherited,,,,,,,,,DOPED_005174,,,Doped_Semiconductor,,,CdS_Al,CdS + Al @ 1.0e+19 cm^-3,,,Al,
Systematic_Generation,,5e+19,CdS:Al_5.0e+19,,Inherited,,,,,,,,,DOPED_005175,,,Doped_Semiconductor,,,CdS_Al,CdS + Al @ 5.0e+19 cm^-3,,,Al,
Systematic_Generation,,1e+20,CdS:Al_1.0e+20,,Inherited,,,,,,,,,DOPED_005176,,,Doped_Semiconductor,,,CdS_Al,CdS + Al @ 1.0e+20 cm^-3,,,Al,
Systematic_Generation,,1e+21,CdS:Al_1.0e+21,,Inherited,,,,,,,,,DOPED_005177,,,Doped_Semiconductor,,,CdS_Al,CdS + Al @ 1.0e+21 cm^-3,,,Al,
Systematic_Generation,,1000000000000000.0,CdS:Ga_1.0e+15,,Inherited,,,,,,,,,DOPED_005178,,,Doped_Semiconductor,,,CdS_Ga,CdS + Ga @ 1.0e+15 cm^-3,,,Ga,
Systematic_Generation,,5000000000000000.0,CdS:Ga_5.0e+15,,Inherited,,,,,,,,,DOPED_005179,,,Doped_Semiconductor,,,CdS_Ga,CdS + Ga @ 5.0e+15 cm^-3,,,Ga,
Systematic_Generation,,1e+16,CdS:Ga_1.0e+16,,Inherited,,,,,,,,,DOPED_005180,,,Doped_Semiconductor,,,CdS_Ga,CdS + Ga @ 1.0e+16 cm^-3,,,Ga,
Systematic_Generation,,5e+16,CdS:Ga_5.0e+16,,Inherited,,,,,,,,,DOPED_005181,,,Doped_Semiconductor,,,CdS_Ga,CdS + Ga @ 5.0e+16 cm^-3,,,Ga,
Systematic_Generation,,1e+17,CdS:Ga_1.0e+17,,Inherited,,,,,,,,,DOPED_005182,,,Doped_Semiconductor,,,CdS_Ga,CdS + Ga @ 1.0e+17 cm^-3,,,Ga,
Systematic_Generation,,5e+17,CdS:Ga_5.0e+17,,Inherited,,,,,,,,,DOPED_005183,,,Doped_Semiconductor,,,CdS_Ga,CdS + Ga @ 5.0e+17 cm^-3,,,Ga,
Systematic_Generation,,1e+18,CdS:Ga_1.0e+18,,Inherited,,,,,,,,,DOPED_005184,,,Doped_Semiconductor,,,CdS_Ga,CdS + Ga @ 1.0e+18 cm^-3,,,Ga,
Systematic_Generation,,5e+18,CdS:Ga_5.0e+18,,Inherited,,,,,,,,,DOPED_005185,,,Doped_Semiconductor,,,CdS_Ga,CdS + Ga @ 5.0e+18 cm^-3,,,Ga,
Systematic_Generation,,1e+19,CdS:Ga_1.0e+19,,Inherited,,,,,,,,,DOPED_005186,,,Doped_Semiconductor,,,CdS_Ga,CdS + Ga @ 1.0e+19 cm^-3,,,Ga,
Systematic_Generation,,5e+19,CdS:Ga_5.0e+19,,Inherited,,,,,,,,,DOPED_005187,,,Doped_Semiconductor,,,CdS_Ga,CdS + Ga @ 5.0e+19 cm^-3,,,Ga,
Systematic_Generation,,1e+20,CdS:Ga_1.0e+20,,Inherited,,,,,,,,,DOPED_005188,,,Doped_Semiconductor,,,CdS_Ga,CdS + Ga @ 1.0e+20 cm^-3,,,Ga,
Systematic_Generation,,1e+21,CdS:Ga_1.0e+21,,Inherited,,,,,,,,,DOPED_005189,,,Doped_Semiconductor,,,CdS_Ga,CdS + Ga @ 1.0e+21 cm^-3,,,Ga,
Systematic_Generation,,1000000000000000.0,CdS:In_1.0e+15,,Inherited,,,,,,,,,DOPED_005190,,,Doped_Semiconductor,,,CdS_In,CdS + In @ 1.0e+15 cm^-3,,,In,
Systematic_Generation,,5000000000000000.0,CdS:In_5.0e+15,,Inherited,,,,,,,,,DOPED_005191,,,Doped_Semiconductor,,,CdS_In,CdS + In @ 5.0e+15 cm^-3,,,In,
Systematic_Generation,,1e+16,CdS:In_1.0e+16,,Inherited,,,,,,,,,DOPED_005192,,,Doped_Semiconductor,,,CdS_In,CdS + In @ 1.0e+16 cm^-3,,,In,
Systematic_Generation,,5e+16,CdS:In_5.0e+16,,Inherited,,,,,,,,,DOPED_005193,,,Doped_Semiconductor,,,CdS_In,CdS + In @ 5.0e+16 cm^-3,,,In,
Systematic_Generation,,1e+17,CdS:In_1.0e+17,,Inherited,,,,,,,,,DOPED_005194,,,Doped_Semiconductor,,,CdS_In,CdS + In @ 1.0e+17 cm^-3,,,In,
Systematic_Generation,,5e+17,CdS:In_5.0e+17,,Inherited,,,,,,,,,DOPED_005195,,,Doped_Semiconductor,,,CdS_In,CdS + In @ 5.0e+17 cm^-3,,,In,
Systematic_Generation,,1e+18,CdS:In_1.0e+18,,Inherited,,,,,,,,,DOPED_005196,,,Doped_Semiconductor,,,CdS_In,CdS + In @ 1.0e+18 cm^-3,,,In,
Systematic_Generation,,5e+18,CdS:In_5.0e+18,,Inherited,,,,,,,,,DOPED_005197,,,Doped_Semiconductor,,,CdS_In,CdS + In @ 5.0e+18 cm^-3,,,In,
Systematic_Generation,,1e+19,CdS:In_1.0e+19,,Inherited,,,,,,,,,DOPED_005198,,,Doped_Semiconductor,,,CdS_In,CdS + In @ 1.0e+19 cm^-3,,,In,
Systematic_Generation,,5e+19,CdS:In_5.0e+19,,Inherited,,,,,,,,,DOPED_005199,,,Doped_Semiconductor,,,CdS_In,CdS + In @ 5.0e+19 cm^-3,,,In,
Systematic_Generation,,1e+20,CdS:In_1.0e+20,,Inherited,,,,,,,,,DOPED_005200,,,Doped_Semiconductor,,,CdS_In,CdS + In @ 1.0e+20 cm^-3,,,In,
Systematic_Generation,,1e+21,CdS:In_1.0e+21,,Inherited,,,,,,,,,DOPED_005201,,,Doped_Semiconductor,,,CdS_In,CdS + In @ 1.0e+21 cm^-3,,,In,
Systematic_Generation,,1000000000000000.0,CdS:Bi_1.0e+15,,Inherited,,,,,,,,,DOPED_005202,,,Doped_Semiconductor,,,CdS_Bi,CdS + Bi @ 1.0e+15 cm^-3,,,Bi,
Systematic_Generation,,5000000000000000.0,CdS:Bi_5.0e+15,,Inherited,,,,,,,,,DOPED_005203,,,Doped_Semiconductor,,,CdS_Bi,CdS + Bi @ 5.0e+15 cm^-3,,,Bi,
Systematic_Generation,,1e+16,CdS:Bi_1.0e+16,,Inherited,,,,,,,,,DOPED_005204,,,Doped_Semiconductor,,,CdS_Bi,CdS + Bi @ 1.0e+16 cm^-3,,,Bi,
Systematic_Generation,,5e+16,CdS:Bi_5.0e+16,,Inherited,,,,,,,,,DOPED_005205,,,Doped_Semiconductor,,,CdS_Bi,CdS + Bi @ 5.0e+16 cm^-3,,,Bi,
Systematic_Generation,,1e+17,CdS:Bi_1.0e+17,,Inherited,,,,,,,,,DOPED_005206,,,Doped_Semiconductor,,,CdS_Bi,CdS + Bi @ 1.0e+17 cm^-3,,,Bi,
Systematic_Generation,,5e+17,CdS:Bi_5.0e+17,,Inherited,,,,,,,,,DOPED_005207,,,Doped_Semiconductor,,,CdS_Bi,CdS + Bi @ 5.0e+17 cm^-3,,,Bi,
Systematic_Generation,,1e+18,CdS:Bi_1.0e+18,,Inherited,,,,,,,,,DOPED_005208,,,Doped_Semiconductor,,,CdS_Bi,CdS + Bi @ 1.0e+18 cm^-3,,,Bi,
Systematic_Generation,,5e+18,CdS:Bi_5.0e+18,,Inherited,,,,,,,,,DOPED_005209,,,Doped_Semiconductor,,,CdS_Bi,CdS + Bi @ 5.0e+18 cm^-3,,,Bi,
Systematic_Generation,,1e+19,CdS:Bi_1.0e+19,,Inherited,,,,,,,,,DOPED_005210,,,Doped_Semiconductor,,,CdS_Bi,CdS + Bi @ 1.0e+19 cm^-3,,,Bi,
Systematic_Generation,,5e+19,CdS:Bi_5.0e+19,,Inherited,,,,,,,,,DOPED_005211,,,Doped_Semiconductor,,,CdS_Bi,CdS + Bi @ 5.0e+19 cm^-3,,,Bi,
Systematic_Generation,,1e+20,CdS:Bi_1.0e+20,,Inherited,,,,,,,,,DOPED_005212,,,Doped_Semiconductor,,,CdS_Bi,CdS + Bi @ 1.0e+20 cm^-3,,,Bi,