source,n_elements,doping_concentration,name,termination,space_group,doping_level,volume_fraction,weight_percent,lattice_c,temperature,reinforcement,matrix,layers,material_id,molecular_weight,deposition_method,type,lattice_b,pdi,formula,composition,lattice_a,thickness_nm,dopant,substrate
Systematic_Generation,,,PEEK_Basalt_25vol,,,,0.25,,,,Basalt,PEEK,,COMP_007374,,,Composite,,,PEEK+Basalt,PEEK matrix with 25% Basalt,,,,
Systematic_Generation,,,PEEK_Basalt_30vol,,,,0.3,,,,Basalt,PEEK,,COMP_007375,,,Composite,,,PEEK+Basalt,PEEK matrix with 30% Basalt,,,,
Systematic_Generation,,,PEEK_Basalt_40vol,,,,0.4,,,,Basalt,PEEK,,COMP_007376,,,Composite,,,PEEK+Basalt,PEEK matrix with 40% Basalt,,,,
Systematic_Generation,,,PEEK_Basalt_50vol,,,,0.5,,,,Basalt,PEEK,,COMP_007377,,,Composite,,,PEEK+Basalt,PEEK matrix with 50% Basalt,,,,
Systematic_Generation,,,PEEK_Basalt_60vol,,,,0.6,,,,Basalt,PEEK,,COMP_007378,,,Composite,,,PEEK+Basalt,PEEK matrix with 60% Basalt,,,,
Systematic_Generation,,,PEEK_Natural_fiber_1vol,,,,0.01,,,,Natural_fiber,PEEK,,COMP_007379,,,Composite,,,PEEK+Natural_fiber,PEEK matrix with 1% Natural_fiber,,,,
Systematic_Generation,,,PEEK_Natural_fiber_2vol,,,,0.02,,,,Natural_fiber,PEEK,,COMP_007380,,,Composite,,,PEEK+Natural_fiber,PEEK matrix with 2% Natural_fiber,,,,
Systematic_Generation,,,PEEK_Natural_fiber_5vol,,,,0.05,,,,Natural_fiber,PEEK,,COMP_007381,,,Composite,,,PEEK+Natural_fiber,PEEK matrix with 5% Natural_fiber,,,,
Systematic_Generation,,,PEEK_Natural_fiber_10vol,,,,0.1,,,,Natural_fiber,PEEK,,COMP_007382,,,Composite,,,PEEK+Natural_fiber,PEEK matrix with 10% Natural_fiber,,,,
Systematic_Generation,,,PEEK_Natural_fiber_15vol,,,,0.15,,,,Natural_fiber,PEEK,,COMP_007383,,,Composite,,,PEEK+Natural_fiber,PEEK matrix with 15% Natural_fiber,,,,
Systematic_Generation,,,PEEK_Natural_fiber_20vol,,,,0.2,,,,Natural_fiber,PEEK,,COMP_007384,,,Composite,,,PEEK+Natural_fiber,PEEK matrix with 20% Natural_fiber,,,,
Systematic_Generation,,,PEEK_Natural_fiber_25vol,,,,0.25,,,,Natural_fiber,PEEK,,COMP_007385,,,Composite,,,PEEK+Natural_fiber,PEEK matrix with 25% Natural_fiber,,,,
Systematic_Generation,,,PEEK_Natural_fiber_30vol,,,,0.3,,,,Natural_fiber,PEEK,,COMP_007386,,,Composite,,,PEEK+Natural_fiber,PEEK matrix with 30% Natural_fiber,,,,
Systematic_Generation,,,PEEK_Natural_fiber_40vol,,,,0.4,,,,Natural_fiber,PEEK,,COMP_007387,,,Composite,,,PEEK+Natural_fiber,PEEK matrix with 40% Natural_fiber,,,,
Systematic_Generation,,,PEEK_Natural_fiber_50vol,,,,0.5,,,,Natural_fiber,PEEK,,COMP_007388,,,Composite,,,PEEK+Natural_fiber,PEEK matrix with 50% Natural_fiber,,,,
Systematic_Generation,,,PEEK_Natural_fiber_60vol,,,,0.6,,,,Natural_fiber,PEEK,,COMP_007389,,,Composite,,,PEEK+Natural_fiber,PEEK matrix with 60% Natural_fiber,,,,
Systematic_Generation,,,PEEK_Graphene_1vol,,,,0.01,,,,Graphene,PEEK,,COMP_007390,,,Composite,,,PEEK+Graphene,PEEK matrix with 1% Graphene,,,,
Systematic_Generation,,,PEEK_Graphene_2vol,,,,0.02,,,,Graphene,PEEK,,COMP_007391,,,Composite,,,PEEK+Graphene,PEEK matrix with 2% Graphene,,,,
Systematic_Generation,,,PEEK_Graphene_5vol,,,,0.05,,,,Graphene,PEEK,,COMP_007392,,,Composite,,,PEEK+Graphene,PEEK matrix with 5% Graphene,,,,
Systematic_Generation,,,PEEK_Graphene_10vol,,,,0.1,,,,Graphene,PEEK,,COMP_007393,,,Composite,,,PEEK+Graphene,PEEK matrix with 10% Graphene,,,,
Systematic_Generation,,,PEEK_Graphene_15vol,,,,0.15,,,,Graphene,PEEK,,COMP_007394,,,Composite,,,PEEK+Graphene,PEEK matrix with 15% Graphene,,,,
Systematic_Generation,,,PEEK_Graphene_20vol,,,,0.2,,,,Graphene,PEEK,,COMP_007395,,,Composite,,,PEEK+Graphene,PEEK matrix with 20% Graphene,,,,
Systematic_Generation,,,PEEK_Graphene_25vol,,,,0.25,,,,Graphene,PEEK,,COMP_007396,,,Composite,,,PEEK+Graphene,PEEK matrix with 25% Graphene,,,,
Systematic_Generation,,,PEEK_Graphene_30vol,,,,0.3,,,,Graphene,PEEK,,COMP_007397,,,Composite,,,PEEK+Graphene,PEEK matrix with 30% Graphene,,,,
Systematic_Generation,,,PEEK_Graphene_40vol,,,,0.4,,,,Graphene,PEEK,,COMP_007398,,,Composite,,,PEEK+Graphene,PEEK matrix with 40% Graphene,,,,
Systematic_Generation,,,PEEK_Graphene_50vol,,,,0.5,,,,Graphene,PEEK,,COMP_007399,,,Composite,,,PEEK+Graphene,PEEK matrix with 50% Graphene,,,,
Systematic_Generation,,,PEEK_Graphene_60vol,,,,0.6,,,,Graphene,PEEK,,COMP_007400,,,Composite,,,PEEK+Graphene,PEEK matrix with 60% Graphene,,,,
Systematic_Generation,,,PEEK_CNT_1vol,,,,0.01,,,,CNT,PEEK,,COMP_007401,,,Composite,,,PEEK+CNT,PEEK matrix with 1% CNT,,,,
Systematic_Generation,,,PEEK_CNT_2vol,,,,0.02,,,,CNT,PEEK,,COMP_007402,,,Composite,,,PEEK+CNT,PEEK matrix with 2% CNT,,,,
Systematic_Generation,,,PEEK_CNT_5vol,,,,0.05,,,,CNT,PEEK,,COMP_007403,,,Composite,,,PEEK+CNT,PEEK matrix with 5% CNT,,,,
Systematic_Generation,,,PEEK_CNT_10vol,,,,0.1,,,,CNT,PEEK,,COMP_007404,,,Composite,,,PEEK+CNT,PEEK matrix with 10% CNT,,,,
Systematic_Generation,,,PEEK_CNT_15vol,,,,0.15,,,,CNT,PEEK,,COMP_007405,,,Composite,,,PEEK+CNT,PEEK matrix with 15% CNT,,,,
Systematic_Generation,,,PEEK_CNT_20vol,,,,0.2,,,,CNT,PEEK,,COMP_007406,,,Composite,,,PEEK+CNT,PEEK matrix with 20% CNT,,,,
Systematic_Generation,,,PEEK_CNT_25vol,,,,0.25,,,,CNT,PEEK,,COMP_007407,,,Composite,,,PEEK+CNT,PEEK matrix with 25% CNT,,,,
Systematic_Generation,,,PEEK_CNT_30vol,,,,0.3,,,,CNT,PEEK,,COMP_007408,,,Composite,,,PEEK+CNT,PEEK matrix with 30% CNT,,,,
Systematic_Generation,,,PEEK_CNT_40vol,,,,0.4,,,,CNT,PEEK,,COMP_007409,,,Composite,,,PEEK+CNT,PEEK matrix with 40% CNT,,,,
Systematic_Generation,,,PEEK_CNT_50vol,,,,0.5,,,,CNT,PEEK,,COMP_007410,,,Composite,,,PEEK+CNT,PEEK matrix with 50% CNT,,,,
Systematic_Generation,,,PEEK_CNT_60vol,,,,0.6,,,,CNT,PEEK,,COMP_007411,,,Composite,,,PEEK+CNT,PEEK matrix with 60% CNT,,,,
Systematic_Generation,,,PEEK_SiC_particles_1vol,,,,0.01,,,,SiC_particles,PEEK,,COMP_007412,,,Composite,,,PEEK+SiC_particles,PEEK matrix with 1% SiC_particles,,,,
Systematic_Generation,,,PEEK_SiC_particles_2vol,,,,0.02,,,,SiC_particles,PEEK,,COMP_007413,,,Composite,,,PEEK+SiC_particles,PEEK matrix with 2% SiC_particles,,,,
Systematic_Generation,,,PEEK_SiC_particles_5vol,,,,0.05,,,,SiC_particles,PEEK,,COMP_007414,,,Composite,,,PEEK+SiC_particles,PEEK matrix with 5% SiC_particles,,,,
Systematic_Generation,,,PEEK_SiC_particles_10vol,,,,0.1,,,,SiC_particles,PEEK,,COMP_007415,,,Composite,,,PEEK+SiC_particles,PEEK matrix with 10% SiC_particles,,,,
Systematic_Generation,,,PEEK_SiC_particles_15vol,,,,0.15,,,,SiC_particles,PEEK,,COMP_007416,,,Composite,,,PEEK+SiC_particles,PEEK matrix with 15% SiC_particles,,,,
Systematic_Generation,,,PEEK_SiC_particles_20vol,,,,0.2,,,,SiC_particles,PEEK,,COMP_007417,,,Composite,,,PEEK+SiC_particles,PEEK matrix with 20% SiC_particles,,,,
Systematic_Generation,,,PEEK_SiC_particles_25vol,,,,0.25,,,,SiC_particles,PEEK,,COMP_007418,,,Composite,,,PEEK+SiC_particles,PEEK matrix with 25% SiC_particles,,,,
Systematic_Generation,,,PEEK_SiC_particles_30vol,,,,0.3,,,,SiC_particles,PEEK,,COMP_007419,,,Composite,,,PEEK+SiC_particles,PEEK matrix with 30% SiC_particles,,,,
Systematic_Generation,,,PEEK_SiC_particles_40vol,,,,0.4,,,,SiC_particles,PEEK,,COMP_007420,,,Composite,,,PEEK+SiC_particles,PEEK matrix with 40% SiC_particles,,,,
Systematic_Generation,,,PEEK_SiC_particles_50vol,,,,0.5,,,,SiC_particles,PEEK,,COMP_007421,,,Composite,,,PEEK+SiC_particles,PEEK matrix with 50% SiC_particles,,,,
Systematic_Generation,,,PEEK_SiC_particles_60vol,,,,0.6,,,,SiC_particles,PEEK,,COMP_007422,,,Composite,,,PEEK+SiC_particles,PEEK matrix with 60% SiC_particles,,,,
Systematic_Generation,,,PEEK_Al2O3_particles_1vol,,,,0.01,,,,Al2O3_particles,PEEK,,COMP_007423,,,Composite,,,PEEK+Al2O3_particles,PEEK matrix with 1% Al2O3_particles,,,,
Systematic_Generation,,,PEEK_Al2O3_particles_2vol,,,,0.02,,,,Al2O3_particles,PEEK,,COMP_007424,,,Composite,,,PEEK+Al2O3_particles,PEEK matrix with 2% Al2O3_particles,,,,
Systematic_Generation,,,PEEK_Al2O3_particles_5vol,,,,0.05,,,,Al2O3_particles,PEEK,,COMP_007425,,,Composite,,,PEEK+Al2O3_particles,PEEK matrix with 5% Al2O3_particles,,,,
Systematic_Generation,,,PEEK_Al2O3_particles_10vol,,,,0.1,,,,Al2O3_particles,PEEK,,COMP_007426,,,Composite,,,PEEK+Al2O3_particles,PEEK matrix with 10% Al2O3_particles,,,,
Systematic_Generation,,,PEEK_Al2O3_particles_15vol,,,,0.15,,,,Al2O3_particles,PEEK,,COMP_007427,,,Composite,,,PEEK+Al2O3_particles,PEEK matrix with 15% Al2O3_particles,,,,
Systematic_Generation,,,PEEK_Al2O3_particles_20vol,,,,0.2,,,,Al2O3_particles,PEEK,,COMP_007428,,,Composite,,,PEEK+Al2O3_particles,PEEK matrix with 20% Al2O3_particles,,,,
Systematic_Generation,,,PEEK_Al2O3_particles_25vol,,,,0.25,,,,Al2O3_particles,PEEK,,COMP_007429,,,Composite,,,PEEK+Al2O3_particles,PEEK matrix with 25% Al2O3_particles,,,,
Systematic_Generation,,,PEEK_Al2O3_particles_30vol,,,,0.3,,,,Al2O3_particles,PEEK,,COMP_007430,,,Composite,,,PEEK+Al2O3_particles,PEEK matrix with 30% Al2O3_particles,,,,
Systematic_Generation,,,PEEK_Al2O3_particles_40vol,,,,0.4,,,,Al2O3_particles,PEEK,,COMP_007431,,,Composite,,,PEEK+Al2O3_particles,PEEK matrix with 40% Al2O3_particles,,,,
Systematic_Generation,,,PEEK_Al2O3_particles_50vol,,,,0.5,,,,Al2O3_particles,PEEK,,COMP_007432,,,Composite,,,PEEK+Al2O3_particles,PEEK matrix with 50% Al2O3_particles,,,,
Systematic_Generation,,,PEEK_Al2O3_particles_60vol,,,,0.6,,,,Al2O3_particles,PEEK,,COMP_007433,,,Composite,,,PEEK+Al2O3_particles,PEEK matrix with 60% Al2O3_particles,,,,
Systematic_Generation,,,PEEK_TiO2_particles_1vol,,,,0.01,,,,TiO2_particles,PEEK,,COMP_007434,,,Composite,,,PEEK+TiO2_particles,PEEK matrix with 1% TiO2_particles,,,,
Systematic_Generation,,,PEEK_TiO2_particles_2vol,,,,0.02,,,,TiO2_particles,PEEK,,COMP_007435,,,Composite,,,PEEK+TiO2_particles,PEEK matrix with 2% TiO2_particles,,,,
Systematic_Generation,,,PEEK_TiO2_particles_5vol,,,,0.05,,,,TiO2_particles,PEEK,,COMP_007436,,,Composite,,,PEEK+TiO2_particles,PEEK matrix with 5% TiO2_particles,,,,
Systematic_Generation,,,PEEK_TiO2_particles_10vol,,,,0.1,,,,TiO2_particles,PEEK,,COMP_007437,,,Composite,,,PEEK+TiO2_particles,PEEK matrix with 10% TiO2_particles,,,,
Systematic_Generation,,,PEEK_TiO2_particles_15vol,,,,0.15,,,,TiO2_particles,PEEK,,COMP_007438,,,Composite,,,PEEK+TiO2_particles,PEEK matrix with 15% TiO2_particles,,,,
Systematic_Generation,,,PEEK_TiO2_particles_20vol,,,,0.2,,,,TiO2_particles,PEEK,,COMP_007439,,,Composite,,,PEEK+TiO2_particles,PEEK matrix with 20% TiO2_particles,,,,
Systematic_Generation,,,PEEK_TiO2_particles_25vol,,,,0.25,,,,TiO2_particles,PEEK,,COMP_007440,,,Composite,,,PEEK+TiO2_particles,PEEK matrix with 25% TiO2_particles,,,,
Systematic_Generation,,,PEEK_TiO2_particles_30vol,,,,0.3,,,,TiO2_particles,PEEK,,COMP_007441,,,Composite,,,PEEK+TiO2_particles,PEEK matrix with 30% TiO2_particles,,,,
Systematic_Generation,,,PEEK_TiO2_particles_40vol,,,,0.4,,,,TiO2_particles,PEEK,,COMP_007442,,,Composite,,,PEEK+TiO2_particles,PEEK matrix with 40% TiO2_particles,,,,
Systematic_Generation,,,PEEK_TiO2_particles_50vol,,,,0.5,,,,TiO2_particles,PEEK,,COMP_007443,,,Composite,,,PEEK+TiO2_particles,PEEK matrix with 50% TiO2_particles,,,,
Systematic_Generation,,,PEEK_TiO2_particles_60vol,,,,0.6,,,,TiO2_particles,PEEK,,COMP_007444,,,Composite,,,PEEK+TiO2_particles,PEEK matrix with 60% TiO2_particles,,,,
Systematic_Generation,,,PEEK_ZnO_1vol,,,,0.01,,,,ZnO,PEEK,,COMP_007445,,,Composite,,,PEEK+ZnO,PEEK matrix with 1% ZnO,,,,
Systematic_Generation,,,PEEK_ZnO_2vol,,,,0.02,,,,ZnO,PEEK,,COMP_007446,,,Composite,,,PEEK+ZnO,PEEK matrix with 2% ZnO,,,,
Systematic_Generation,,,PEEK_ZnO_5vol,,,,0.05,,,,ZnO,PEEK,,COMP_007447,,,Composite,,,PEEK+ZnO,PEEK matrix with 5% ZnO,,,,
Systematic_Generation,,,PEEK_ZnO_10vol,,,,0.1,,,,ZnO,PEEK,,COMP_007448,,,Composite,,,PEEK+ZnO,PEEK matrix with 10% ZnO,,,,
Systematic_Generation,,,PEEK_ZnO_15vol,,,,0.15,,,,ZnO,PEEK,,COMP_007449,,,Composite,,,PEEK+ZnO,PEEK matrix with 15% ZnO,,,,
Systematic_Generation,,,PEEK_ZnO_20vol,,,,0.2,,,,ZnO,PEEK,,COMP_007450,,,Composite,,,PEEK+ZnO,PEEK matrix with 20% ZnO,,,,
Systematic_Generation,,,PEEK_ZnO_25vol,,,,0.25,,,,ZnO,PEEK,,COMP_007451,,,Composite,,,PEEK+ZnO,PEEK matrix with 25% ZnO,,,,
Systematic_Generation,,,PEEK_ZnO_30vol,,,,0.3,,,,ZnO,PEEK,,COMP_007452,,,Composite,,,PEEK+ZnO,PEEK matrix with 30% ZnO,,,,
Systematic_Generation,,,PEEK_ZnO_40vol,,,,0.4,,,,ZnO,PEEK,,COMP_007453,,,Composite,,,PEEK+ZnO,PEEK matrix with 40% ZnO,,,,
Systematic_Generation,,,PEEK_ZnO_50vol,,,,0.5,,,,ZnO,PEEK,,COMP_007454,,,Composite,,,PEEK+ZnO,PEEK matrix with 50% ZnO,,,,
Systematic_Generation,,,PEEK_ZnO_60vol,,,,0.6,,,,ZnO,PEEK,,COMP_007455,,,Composite,,,PEEK+ZnO,PEEK matrix with 60% ZnO,,,,
Systematic_Generation,,,PEEK_SiC_whisker_1vol,,,,0.01,,,,SiC_whisker,PEEK,,COMP_007456,,,Composite,,,PEEK+SiC_whisker,PEEK matrix with 1% SiC_whisker,,,,
Systematic_Generation,,,PEEK_SiC_whisker_2vol,,,,0.02,,,,SiC_whisker,PEEK,,COMP_007457,,,Composite,,,PEEK+SiC_whisker,PEEK matrix with 2% SiC_whisker,,,,
Systematic_Generation,,,PEEK_SiC_whisker_5vol,,,,0.05,,,,SiC_whisker,PEEK,,COMP_007458,,,Composite,,,PEEK+SiC_whisker,PEEK matrix with 5% SiC_whisker,,,,
Systematic_Generation,,,PEEK_SiC_whisker_10vol,,,,0.1,,,,SiC_whisker,PEEK,,COMP_007459,,,Composite,,,PEEK+SiC_whisker,PEEK matrix with 10% SiC_whisker,,,,
Systematic_Generation,,,PEEK_SiC_whisker_15vol,,,,0.15,,,,SiC_whisker,PEEK,,COMP_007460,,,Composite,,,PEEK+SiC_whisker,PEEK matrix with 15% SiC_whisker,,,,
Systematic_Generation,,,PEEK_SiC_whisker_20vol,,,,0.2,,,,SiC_whisker,PEEK,,COMP_007461,,,Composite,,,PEEK+SiC_whisker,PEEK matrix with 20% SiC_whisker,,,,
Systematic_Generation,,,PEEK_SiC_whisker_25vol,,,,0.25,,,,SiC_whisker,PEEK,,COMP_007462,,,Composite,,,PEEK+SiC_whisker,PEEK matrix with 25% SiC_whisker,,,,
Systematic_Generation,,,PEEK_SiC_whisker_30vol,,,,0.3,,,,SiC_whisker,PEEK,,COMP_007463,,,Composite,,,PEEK+SiC_whisker,PEEK matrix with 30% SiC_whisker,,,,
Systematic_Generation,,,PEEK_SiC_whisker_40vol,,,,0.4,,,,SiC_whisker,PEEK,,COMP_007464,,,Composite,,,PEEK+SiC_whisker,PEEK matrix with 40% SiC_whisker,,,,
Systematic_Generation,,,PEEK_SiC_whisker_50vol,,,,0.5,,,,SiC_whisker,PEEK,,COMP_007465,,,Composite,,,PEEK+SiC_whisker,PEEK matrix with 50% SiC_whisker,,,,
Systematic_Generation,,,PEEK_SiC_whisker_60vol,,,,0.6,,,,SiC_whisker,PEEK,,COMP_007466,,,Composite,,,PEEK+SiC_whisker,PEEK matrix with 60% SiC_whisker,,,,
Systematic_Generation,,,PEEK_Al2O3_whisker_1vol,,,,0.01,,,,Al2O3_whisker,PEEK,,COMP_007467,,,Composite,,,PEEK+Al2O3_whisker,PEEK matrix with 1% Al2O3_whisker,,,,
Systematic_Generation,,,PEEK_Al2O3_whisker_2vol,,,,0.02,,,,Al2O3_whisker,PEEK,,COMP_007468,,,Composite,,,PEEK+Al2O3_whisker,PEEK matrix with 2% Al2O3_whisker,,,,
Systematic_Generation,,,PEEK_Al2O3_whisker_5vol,,,,0.05,,,,Al2O3_whisker,PEEK,,COMP_007469,,,Composite,,,PEEK+Al2O3_whisker,PEEK matrix with 5% Al2O3_whisker,,,,
Systematic_Generation,,,PEEK_Al2O3_whisker_10vol,,,,0.1,,,,Al2O3_whisker,PEEK,,COMP_007470,,,Composite,,,PEEK+Al2O3_whisker,PEEK matrix with 10% Al2O3_whisker,,,,
Systematic_Generation,,,PEEK_Al2O3_whisker_15vol,,,,0.15,,,,Al2O3_whisker,PEEK,,COMP_007471,,,Composite,,,PEEK+Al2O3_whisker,PEEK matrix with 15% Al2O3_whisker,,,,
Systematic_Generation,,,PEEK_Al2O3_whisker_20vol,,,,0.2,,,,Al2O3_whisker,PEEK,,COMP_007472,,,Composite,,,PEEK+Al2O3_whisker,PEEK matrix with 20% Al2O3_whisker,,,,
Systematic_Generation,,,PEEK_Al2O3_whisker_25vol,,,,0.25,,,,Al2O3_whisker,PEEK,,COMP_007473,,,Composite,,,PEEK+Al2O3_whisker,PEEK matrix with 25% Al2O3_whisker,,,,
Systematic_Generation,,,PEEK_Al2O3_whisker_30vol,,,,0.3,,,,Al2O3_whisker,PEEK,,COMP_007474,,,Composite,,,PEEK+Al2O3_whisker,PEEK matrix with 30% Al2O3_whisker,,,,
Systematic_Generation,,,PEEK_Al2O3_whisker_40vol,,,,0.4,,,,Al2O3_whisker,PEEK,,COMP_007475,,,Composite,,,PEEK+Al2O3_whisker,PEEK matrix with 40% Al2O3_whisker,,,,
Systematic_Generation,,,PEEK_Al2O3_whisker_50vol,,,,0.5,,,,Al2O3_whisker,PEEK,,COMP_007476,,,Composite,,,PEEK+Al2O3_whisker,PEEK matrix with 50% Al2O3_whisker,,,,
Systematic_Generation,,,PEEK_Al2O3_whisker_60vol,,,,0.6,,,,Al2O3_whisker,PEEK,,COMP_007477,,,Composite,,,PEEK+Al2O3_whisker,PEEK matrix with 60% Al2O3_whisker,,,,
Systematic_Generation,,,PEEK_Si3N4_whisker_1vol,,,,0.01,,,,Si3N4_whisker,PEEK,,COMP_007478,,,Composite,,,PEEK+Si3N4_whisker,PEEK matrix with 1% Si3N4_whisker,,,,
Systematic_Generation,,,PEEK_Si3N4_whisker_2vol,,,,0.02,,,,Si3N4_whisker,PEEK,,COMP_007479,,,Composite,,,PEEK+Si3N4_whisker,PEEK matrix with 2% Si3N4_whisker,,,,
Systematic_Generation,,,PEEK_Si3N4_whisker_5vol,,,,0.05,,,,Si3N4_whisker,PEEK,,COMP_007480,,,Composite,,,PEEK+Si3N4_whisker,PEEK matrix with 5% Si3N4_whisker,,,,
Systematic_Generation,,,PEEK_Si3N4_whisker_10vol,,,,0.1,,,,Si3N4_whisker,PEEK,,COMP_007481,,,Composite,,,PEEK+Si3N4_whisker,PEEK matrix with 10% Si3N4_whisker,,,,
Systematic_Generation,,,PEEK_Si3N4_whisker_15vol,,,,0.15,,,,Si3N4_whisker,PEEK,,COMP_007482,,,Composite,,,PEEK+Si3N4_whisker,PEEK matrix with 15% Si3N4_whisker,,,,
Systematic_Generation,,,PEEK_Si3N4_whisker_20vol,,,,0.2,,,,Si3N4_whisker,PEEK,,COMP_007483,,,Composite,,,PEEK+Si3N4_whisker,PEEK matrix with 20% Si3N4_whisker,,,,
Systematic_Generation,,,PEEK_Si3N4_whisker_25vol,,,,0.25,,,,Si3N4_whisker,PEEK,,COMP_007484,,,Composite,,,PEEK+Si3N4_whisker,PEEK matrix with 25% Si3N4_whisker,,,,
Systematic_Generation,,,PEEK_Si3N4_whisker_30vol,,,,0.3,,,,Si3N4_whisker,PEEK,,COMP_007485,,,Composite,,,PEEK+Si3N4_whisker,PEEK matrix with 30% Si3N4_whisker,,,,
Systematic_Generation,,,PEEK_Si3N4_whisker_40vol,,,,0.4,,,,Si3N4_whisker,PEEK,,COMP_007486,,,Composite,,,PEEK+Si3N4_whisker,PEEK matrix with 40% Si3N4_whisker,,,,
Systematic_Generation,,,PEEK_Si3N4_whisker_50vol,,,,0.5,,,,Si3N4_whisker,PEEK,,COMP_007487,,,Composite,,,PEEK+Si3N4_whisker,PEEK matrix with 50% Si3N4_whisker,,,,
Systematic_Generation,,,PEEK_Si3N4_whisker_60vol,,,,0.6,,,,Si3N4_whisker,PEEK,,COMP_007488,,,Composite,,,PEEK+Si3N4_whisker,PEEK matrix with 60% Si3N4_whisker,,,,
Systematic_Generation,,,PLA_Carbon_fiber_1vol,,,,0.01,,,,Carbon_fiber,PLA,,COMP_007489,,,Composite,,,PLA+Carbon_fiber,PLA matrix with 1% Carbon_fiber,,,,
Systematic_Generation,,,PLA_Carbon_fiber_2vol,,,,0.02,,,,Carbon_fiber,PLA,,COMP_007490,,,Composite,,,PLA+Carbon_fiber,PLA matrix with 2% Carbon_fiber,,,,
Systematic_Generation,,,PLA_Carbon_fiber_5vol,,,,0.05,,,,Carbon_fiber,PLA,,COMP_007491,,,Composite,,,PLA+Carbon_fiber,PLA matrix with 5% Carbon_fiber,,,,
Systematic_Generation,,,PLA_Carbon_fiber_10vol,,,,0.1,,,,Carbon_fiber,PLA,,COMP_007492,,,Composite,,,PLA+Carbon_fiber,PLA matrix with 10% Carbon_fiber,,,,
Systematic_Generation,,,PLA_Carbon_fiber_15vol,,,,0.15,,,,Carbon_fiber,PLA,,COMP_007493,,,Composite,,,PLA+Carbon_fiber,PLA matrix with 15% Carbon_fiber,,,,
Systematic_Generation,,,PLA_Carbon_fiber_20vol,,,,0.2,,,,Carbon_fiber,PLA,,COMP_007494,,,Composite,,,PLA+Carbon_fiber,PLA matrix with 20% Carbon_fiber,,,,
Systematic_Generation,,,PLA_Carbon_fiber_25vol,,,,0.25,,,,Carbon_fiber,PLA,,COMP_007495,,,Composite,,,PLA+Carbon_fiber,PLA matrix with 25% Carbon_fiber,,,,
Systematic_Generation,,,PLA_Carbon_fiber_30vol,,,,0.3,,,,Carbon_fiber,PLA,,COMP_007496,,,Composite,,,PLA+Carbon_fiber,PLA matrix with 30% Carbon_fiber,,,,
Systematic_Generation,,,PLA_Carbon_fiber_40vol,,,,0.4,,,,Carbon_fiber,PLA,,COMP_007497,,,Composite,,,PLA+Carbon_fiber,PLA matrix with 40% Carbon_fiber,,,,
Systematic_Generation,,,PLA_Carbon_fiber_50vol,,,,0.5,,,,Carbon_fiber,PLA,,COMP_007498,,,Composite,,,PLA+Carbon_fiber,PLA matrix with 50% Carbon_fiber,,,,
Systematic_Generation,,,PLA_Carbon_fiber_60vol,,,,0.6,,,,Carbon_fiber,PLA,,COMP_007499,,,Composite,,,PLA+Carbon_fiber,PLA matrix with 60% Carbon_fiber,,,,
Systematic_Generation,,,PLA_Glass_fiber_1vol,,,,0.01,,,,Glass_fiber,PLA,,COMP_007500,,,Composite,,,PLA+Glass_fiber,PLA matrix with 1% Glass_fiber,,,,
Systematic_Generation,,,PLA_Glass_fiber_2vol,,,,0.02,,,,Glass_fiber,PLA,,COMP_007501,,,Composite,,,PLA+Glass_fiber,PLA matrix with 2% Glass_fiber,,,,
Systematic_Generation,,,PLA_Glass_fiber_5vol,,,,0.05,,,,Glass_fiber,PLA,,COMP_007502,,,Composite,,,PLA+Glass_fiber,PLA matrix with 5% Glass_fiber,,,,