source,n_elements,doping_concentration,name,termination,space_group,doping_level,volume_fraction,weight_percent,lattice_c,temperature,reinforcement,matrix,layers,material_id,molecular_weight,deposition_method,type,lattice_b,pdi,formula,composition,lattice_a,thickness_nm,dopant,substrate
Systematic_Generation,,5e+16,GaN:Te_5.0e+16,,Inherited,,,,,,,,,DOPED_003537,,,Doped_Semiconductor,,,GaN_Te,GaN + Te @ 5.0e+16 cm^-3,,,Te,
Systematic_Generation,,1e+17,GaN:Te_1.0e+17,,Inherited,,,,,,,,,DOPED_003538,,,Doped_Semiconductor,,,GaN_Te,GaN + Te @ 1.0e+17 cm^-3,,,Te,
Systematic_Generation,,5e+17,GaN:Te_5.0e+17,,Inherited,,,,,,,,,DOPED_003539,,,Doped_Semiconductor,,,GaN_Te,GaN + Te @ 5.0e+17 cm^-3,,,Te,
Systematic_Generation,,1e+18,GaN:Te_1.0e+18,,Inherited,,,,,,,,,DOPED_003540,,,Doped_Semiconductor,,,GaN_Te,GaN + Te @ 1.0e+18 cm^-3,,,Te,
Systematic_Generation,,5e+18,GaN:Te_5.0e+18,,Inherited,,,,,,,,,DOPED_003541,,,Doped_Semiconductor,,,GaN_Te,GaN + Te @ 5.0e+18 cm^-3,,,Te,
Systematic_Generation,,1e+19,GaN:Te_1.0e+19,,Inherited,,,,,,,,,DOPED_003542,,,Doped_Semiconductor,,,GaN_Te,GaN + Te @ 1.0e+19 cm^-3,,,Te,
Systematic_Generation,,5e+19,GaN:Te_5.0e+19,,Inherited,,,,,,,,,DOPED_003543,,,Doped_Semiconductor,,,GaN_Te,GaN + Te @ 5.0e+19 cm^-3,,,Te,
Systematic_Generation,,1e+20,GaN:Te_1.0e+20,,Inherited,,,,,,,,,DOPED_003544,,,Doped_Semiconductor,,,GaN_Te,GaN + Te @ 1.0e+20 cm^-3,,,Te,
Systematic_Generation,,1e+21,GaN:Te_1.0e+21,,Inherited,,,,,,,,,DOPED_003545,,,Doped_Semiconductor,,,GaN_Te,GaN + Te @ 1.0e+21 cm^-3,,,Te,
Systematic_Generation,,1000000000000000.0,InP:B_1.0e+15,,Inherited,,,,,,,,,DOPED_003546,,,Doped_Semiconductor,,,InP_B,InP + B @ 1.0e+15 cm^-3,,,B,
Systematic_Generation,,5000000000000000.0,InP:B_5.0e+15,,Inherited,,,,,,,,,DOPED_003547,,,Doped_Semiconductor,,,InP_B,InP + B @ 5.0e+15 cm^-3,,,B,
Systematic_Generation,,1e+16,InP:B_1.0e+16,,Inherited,,,,,,,,,DOPED_003548,,,Doped_Semiconductor,,,InP_B,InP + B @ 1.0e+16 cm^-3,,,B,
Systematic_Generation,,5e+16,InP:B_5.0e+16,,Inherited,,,,,,,,,DOPED_003549,,,Doped_Semiconductor,,,InP_B,InP + B @ 5.0e+16 cm^-3,,,B,
Systematic_Generation,,1e+17,InP:B_1.0e+17,,Inherited,,,,,,,,,DOPED_003550,,,Doped_Semiconductor,,,InP_B,InP + B @ 1.0e+17 cm^-3,,,B,
Systematic_Generation,,5e+17,InP:B_5.0e+17,,Inherited,,,,,,,,,DOPED_003551,,,Doped_Semiconductor,,,InP_B,InP + B @ 5.0e+17 cm^-3,,,B,
Systematic_Generation,,1e+18,InP:B_1.0e+18,,Inherited,,,,,,,,,DOPED_003552,,,Doped_Semiconductor,,,InP_B,InP + B @ 1.0e+18 cm^-3,,,B,
Systematic_Generation,,5e+18,InP:B_5.0e+18,,Inherited,,,,,,,,,DOPED_003553,,,Doped_Semiconductor,,,InP_B,InP + B @ 5.0e+18 cm^-3,,,B,
Systematic_Generation,,1e+19,InP:B_1.0e+19,,Inherited,,,,,,,,,DOPED_003554,,,Doped_Semiconductor,,,InP_B,InP + B @ 1.0e+19 cm^-3,,,B,
Systematic_Generation,,5e+19,InP:B_5.0e+19,,Inherited,,,,,,,,,DOPED_003555,,,Doped_Semiconductor,,,InP_B,InP + B @ 5.0e+19 cm^-3,,,B,
Systematic_Generation,,1e+20,InP:B_1.0e+20,,Inherited,,,,,,,,,DOPED_003556,,,Doped_Semiconductor,,,InP_B,InP + B @ 1.0e+20 cm^-3,,,B,
Systematic_Generation,,1e+21,InP:B_1.0e+21,,Inherited,,,,,,,,,DOPED_003557,,,Doped_Semiconductor,,,InP_B,InP + B @ 1.0e+21 cm^-3,,,B,
Systematic_Generation,,1000000000000000.0,InP:P_1.0e+15,,Inherited,,,,,,,,,DOPED_003558,,,Doped_Semiconductor,,,InP_P,InP + P @ 1.0e+15 cm^-3,,,P,
Systematic_Generation,,5000000000000000.0,InP:P_5.0e+15,,Inherited,,,,,,,,,DOPED_003559,,,Doped_Semiconductor,,,InP_P,InP + P @ 5.0e+15 cm^-3,,,P,
Systematic_Generation,,1e+16,InP:P_1.0e+16,,Inherited,,,,,,,,,DOPED_003560,,,Doped_Semiconductor,,,InP_P,InP + P @ 1.0e+16 cm^-3,,,P,
Systematic_Generation,,5e+16,InP:P_5.0e+16,,Inherited,,,,,,,,,DOPED_003561,,,Doped_Semiconductor,,,InP_P,InP + P @ 5.0e+16 cm^-3,,,P,
Systematic_Generation,,1e+17,InP:P_1.0e+17,,Inherited,,,,,,,,,DOPED_003562,,,Doped_Semiconductor,,,InP_P,InP + P @ 1.0e+17 cm^-3,,,P,
Systematic_Generation,,5e+17,InP:P_5.0e+17,,Inherited,,,,,,,,,DOPED_003563,,,Doped_Semiconductor,,,InP_P,InP + P @ 5.0e+17 cm^-3,,,P,
Systematic_Generation,,1e+18,InP:P_1.0e+18,,Inherited,,,,,,,,,DOPED_003564,,,Doped_Semiconductor,,,InP_P,InP + P @ 1.0e+18 cm^-3,,,P,
Systematic_Generation,,5e+18,InP:P_5.0e+18,,Inherited,,,,,,,,,DOPED_003565,,,Doped_Semiconductor,,,InP_P,InP + P @ 5.0e+18 cm^-3,,,P,
Systematic_Generation,,1e+19,InP:P_1.0e+19,,Inherited,,,,,,,,,DOPED_003566,,,Doped_Semiconductor,,,InP_P,InP + P @ 1.0e+19 cm^-3,,,P,
Systematic_Generation,,5e+19,InP:P_5.0e+19,,Inherited,,,,,,,,,DOPED_003567,,,Doped_Semiconductor,,,InP_P,InP + P @ 5.0e+19 cm^-3,,,P,
Systematic_Generation,,1e+20,InP:P_1.0e+20,,Inherited,,,,,,,,,DOPED_003568,,,Doped_Semiconductor,,,InP_P,InP + P @ 1.0e+20 cm^-3,,,P,
Systematic_Generation,,1e+21,InP:P_1.0e+21,,Inherited,,,,,,,,,DOPED_003569,,,Doped_Semiconductor,,,InP_P,InP + P @ 1.0e+21 cm^-3,,,P,
Systematic_Generation,,1000000000000000.0,InP:As_1.0e+15,,Inherited,,,,,,,,,DOPED_003570,,,Doped_Semiconductor,,,InP_As,InP + As @ 1.0e+15 cm^-3,,,As,
Systematic_Generation,,5000000000000000.0,InP:As_5.0e+15,,Inherited,,,,,,,,,DOPED_003571,,,Doped_Semiconductor,,,InP_As,InP + As @ 5.0e+15 cm^-3,,,As,
Systematic_Generation,,1e+16,InP:As_1.0e+16,,Inherited,,,,,,,,,DOPED_003572,,,Doped_Semiconductor,,,InP_As,InP + As @ 1.0e+16 cm^-3,,,As,
Systematic_Generation,,5e+16,InP:As_5.0e+16,,Inherited,,,,,,,,,DOPED_003573,,,Doped_Semiconductor,,,InP_As,InP + As @ 5.0e+16 cm^-3,,,As,
Systematic_Generation,,1e+17,InP:As_1.0e+17,,Inherited,,,,,,,,,DOPED_003574,,,Doped_Semiconductor,,,InP_As,InP + As @ 1.0e+17 cm^-3,,,As,
Systematic_Generation,,5e+17,InP:As_5.0e+17,,Inherited,,,,,,,,,DOPED_003575,,,Doped_Semiconductor,,,InP_As,InP + As @ 5.0e+17 cm^-3,,,As,
Systematic_Generation,,1e+18,InP:As_1.0e+18,,Inherited,,,,,,,,,DOPED_003576,,,Doped_Semiconductor,,,InP_As,InP + As @ 1.0e+18 cm^-3,,,As,
Systematic_Generation,,5e+18,InP:As_5.0e+18,,Inherited,,,,,,,,,DOPED_003577,,,Doped_Semiconductor,,,InP_As,InP + As @ 5.0e+18 cm^-3,,,As,
Systematic_Generation,,1e+19,InP:As_1.0e+19,,Inherited,,,,,,,,,DOPED_003578,,,Doped_Semiconductor,,,InP_As,InP + As @ 1.0e+19 cm^-3,,,As,
Systematic_Generation,,5e+19,InP:As_5.0e+19,,Inherited,,,,,,,,,DOPED_003579,,,Doped_Semiconductor,,,InP_As,InP + As @ 5.0e+19 cm^-3,,,As,
Systematic_Generation,,1e+20,InP:As_1.0e+20,,Inherited,,,,,,,,,DOPED_003580,,,Doped_Semiconductor,,,InP_As,InP + As @ 1.0e+20 cm^-3,,,As,
Systematic_Generation,,1e+21,InP:As_1.0e+21,,Inherited,,,,,,,,,DOPED_003581,,,Doped_Semiconductor,,,InP_As,InP + As @ 1.0e+21 cm^-3,,,As,
Systematic_Generation,,1000000000000000.0,InP:Sb_1.0e+15,,Inherited,,,,,,,,,DOPED_003582,,,Doped_Semiconductor,,,InP_Sb,InP + Sb @ 1.0e+15 cm^-3,,,Sb,
Systematic_Generation,,5000000000000000.0,InP:Sb_5.0e+15,,Inherited,,,,,,,,,DOPED_003583,,,Doped_Semiconductor,,,InP_Sb,InP + Sb @ 5.0e+15 cm^-3,,,Sb,
Systematic_Generation,,1e+16,InP:Sb_1.0e+16,,Inherited,,,,,,,,,DOPED_003584,,,Doped_Semiconductor,,,InP_Sb,InP + Sb @ 1.0e+16 cm^-3,,,Sb,
Systematic_Generation,,5e+16,InP:Sb_5.0e+16,,Inherited,,,,,,,,,DOPED_003585,,,Doped_Semiconductor,,,InP_Sb,InP + Sb @ 5.0e+16 cm^-3,,,Sb,
Systematic_Generation,,1e+17,InP:Sb_1.0e+17,,Inherited,,,,,,,,,DOPED_003586,,,Doped_Semiconductor,,,InP_Sb,InP + Sb @ 1.0e+17 cm^-3,,,Sb,
Systematic_Generation,,5e+17,InP:Sb_5.0e+17,,Inherited,,,,,,,,,DOPED_003587,,,Doped_Semiconductor,,,InP_Sb,InP + Sb @ 5.0e+17 cm^-3,,,Sb,
Systematic_Generation,,1e+18,InP:Sb_1.0e+18,,Inherited,,,,,,,,,DOPED_003588,,,Doped_Semiconductor,,,InP_Sb,InP + Sb @ 1.0e+18 cm^-3,,,Sb,
Systematic_Generation,,5e+18,InP:Sb_5.0e+18,,Inherited,,,,,,,,,DOPED_003589,,,Doped_Semiconductor,,,InP_Sb,InP + Sb @ 5.0e+18 cm^-3,,,Sb,
Systematic_Generation,,1e+19,InP:Sb_1.0e+19,,Inherited,,,,,,,,,DOPED_003590,,,Doped_Semiconductor,,,InP_Sb,InP + Sb @ 1.0e+19 cm^-3,,,Sb,
Systematic_Generation,,5e+19,InP:Sb_5.0e+19,,Inherited,,,,,,,,,DOPED_003591,,,Doped_Semiconductor,,,InP_Sb,InP + Sb @ 5.0e+19 cm^-3,,,Sb,
Systematic_Generation,,1e+20,InP:Sb_1.0e+20,,Inherited,,,,,,,,,DOPED_003592,,,Doped_Semiconductor,,,InP_Sb,InP + Sb @ 1.0e+20 cm^-3,,,Sb,
Systematic_Generation,,1e+21,InP:Sb_1.0e+21,,Inherited,,,,,,,,,DOPED_003593,,,Doped_Semiconductor,,,InP_Sb,InP + Sb @ 1.0e+21 cm^-3,,,Sb,
Systematic_Generation,,1000000000000000.0,InP:N_1.0e+15,,Inherited,,,,,,,,,DOPED_003594,,,Doped_Semiconductor,,,InP_N,InP + N @ 1.0e+15 cm^-3,,,N,
Systematic_Generation,,5000000000000000.0,InP:N_5.0e+15,,Inherited,,,,,,,,,DOPED_003595,,,Doped_Semiconductor,,,InP_N,InP + N @ 5.0e+15 cm^-3,,,N,
Systematic_Generation,,1e+16,InP:N_1.0e+16,,Inherited,,,,,,,,,DOPED_003596,,,Doped_Semiconductor,,,InP_N,InP + N @ 1.0e+16 cm^-3,,,N,
Systematic_Generation,,5e+16,InP:N_5.0e+16,,Inherited,,,,,,,,,DOPED_003597,,,Doped_Semiconductor,,,InP_N,InP + N @ 5.0e+16 cm^-3,,,N,
Systematic_Generation,,1e+17,InP:N_1.0e+17,,Inherited,,,,,,,,,DOPED_003598,,,Doped_Semiconductor,,,InP_N,InP + N @ 1.0e+17 cm^-3,,,N,
Systematic_Generation,,5e+17,InP:N_5.0e+17,,Inherited,,,,,,,,,DOPED_003599,,,Doped_Semiconductor,,,InP_N,InP + N @ 5.0e+17 cm^-3,,,N,
Systematic_Generation,,1e+18,InP:N_1.0e+18,,Inherited,,,,,,,,,DOPED_003600,,,Doped_Semiconductor,,,InP_N,InP + N @ 1.0e+18 cm^-3,,,N,
Systematic_Generation,,5e+18,InP:N_5.0e+18,,Inherited,,,,,,,,,DOPED_003601,,,Doped_Semiconductor,,,InP_N,InP + N @ 5.0e+18 cm^-3,,,N,
Systematic_Generation,,1e+19,InP:N_1.0e+19,,Inherited,,,,,,,,,DOPED_003602,,,Doped_Semiconductor,,,InP_N,InP + N @ 1.0e+19 cm^-3,,,N,
Systematic_Generation,,5e+19,InP:N_5.0e+19,,Inherited,,,,,,,,,DOPED_003603,,,Doped_Semiconductor,,,InP_N,InP + N @ 5.0e+19 cm^-3,,,N,
Systematic_Generation,,1e+20,InP:N_1.0e+20,,Inherited,,,,,,,,,DOPED_003604,,,Doped_Semiconductor,,,InP_N,InP + N @ 1.0e+20 cm^-3,,,N,
Systematic_Generation,,1e+21,InP:N_1.0e+21,,Inherited,,,,,,,,,DOPED_003605,,,Doped_Semiconductor,,,InP_N,InP + N @ 1.0e+21 cm^-3,,,N,
Systematic_Generation,,1000000000000000.0,InP:Al_1.0e+15,,Inherited,,,,,,,,,DOPED_003606,,,Doped_Semiconductor,,,InP_Al,InP + Al @ 1.0e+15 cm^-3,,,Al,
Systematic_Generation,,5000000000000000.0,InP:Al_5.0e+15,,Inherited,,,,,,,,,DOPED_003607,,,Doped_Semiconductor,,,InP_Al,InP + Al @ 5.0e+15 cm^-3,,,Al,
Systematic_Generation,,1e+16,InP:Al_1.0e+16,,Inherited,,,,,,,,,DOPED_003608,,,Doped_Semiconductor,,,InP_Al,InP + Al @ 1.0e+16 cm^-3,,,Al,
Systematic_Generation,,5e+16,InP:Al_5.0e+16,,Inherited,,,,,,,,,DOPED_003609,,,Doped_Semiconductor,,,InP_Al,InP + Al @ 5.0e+16 cm^-3,,,Al,
Systematic_Generation,,1e+17,InP:Al_1.0e+17,,Inherited,,,,,,,,,DOPED_003610,,,Doped_Semiconductor,,,InP_Al,InP + Al @ 1.0e+17 cm^-3,,,Al,
Systematic_Generation,,5e+17,InP:Al_5.0e+17,,Inherited,,,,,,,,,DOPED_003611,,,Doped_Semiconductor,,,InP_Al,InP + Al @ 5.0e+17 cm^-3,,,Al,
Systematic_Generation,,1e+18,InP:Al_1.0e+18,,Inherited,,,,,,,,,DOPED_003612,,,Doped_Semiconductor,,,InP_Al,InP + Al @ 1.0e+18 cm^-3,,,Al,
Systematic_Generation,,5e+18,InP:Al_5.0e+18,,Inherited,,,,,,,,,DOPED_003613,,,Doped_Semiconductor,,,InP_Al,InP + Al @ 5.0e+18 cm^-3,,,Al,
Systematic_Generation,,1e+19,InP:Al_1.0e+19,,Inherited,,,,,,,,,DOPED_003614,,,Doped_Semiconductor,,,InP_Al,InP + Al @ 1.0e+19 cm^-3,,,Al,
Systematic_Generation,,5e+19,InP:Al_5.0e+19,,Inherited,,,,,,,,,DOPED_003615,,,Doped_Semiconductor,,,InP_Al,InP + Al @ 5.0e+19 cm^-3,,,Al,
Systematic_Generation,,1e+20,InP:Al_1.0e+20,,Inherited,,,,,,,,,DOPED_003616,,,Doped_Semiconductor,,,InP_Al,InP + Al @ 1.0e+20 cm^-3,,,Al,
Systematic_Generation,,1e+21,InP:Al_1.0e+21,,Inherited,,,,,,,,,DOPED_003617,,,Doped_Semiconductor,,,InP_Al,InP + Al @ 1.0e+21 cm^-3,,,Al,
Systematic_Generation,,1000000000000000.0,InP:Ga_1.0e+15,,Inherited,,,,,,,,,DOPED_003618,,,Doped_Semiconductor,,,InP_Ga,InP + Ga @ 1.0e+15 cm^-3,,,Ga,
Systematic_Generation,,5000000000000000.0,InP:Ga_5.0e+15,,Inherited,,,,,,,,,DOPED_003619,,,Doped_Semiconductor,,,InP_Ga,InP + Ga @ 5.0e+15 cm^-3,,,Ga,
Systematic_Generation,,1e+16,InP:Ga_1.0e+16,,Inherited,,,,,,,,,DOPED_003620,,,Doped_Semiconductor,,,InP_Ga,InP + Ga @ 1.0e+16 cm^-3,,,Ga,
Systematic_Generation,,5e+16,InP:Ga_5.0e+16,,Inherited,,,,,,,,,DOPED_003621,,,Doped_Semiconductor,,,InP_Ga,InP + Ga @ 5.0e+16 cm^-3,,,Ga,
Systematic_Generation,,1e+17,InP:Ga_1.0e+17,,Inherited,,,,,,,,,DOPED_003622,,,Doped_Semiconductor,,,InP_Ga,InP + Ga @ 1.0e+17 cm^-3,,,Ga,
Systematic_Generation,,5e+17,InP:Ga_5.0e+17,,Inherited,,,,,,,,,DOPED_003623,,,Doped_Semiconductor,,,InP_Ga,InP + Ga @ 5.0e+17 cm^-3,,,Ga,
Systematic_Generation,,1e+18,InP:Ga_1.0e+18,,Inherited,,,,,,,,,DOPED_003624,,,Doped_Semiconductor,,,InP_Ga,InP + Ga @ 1.0e+18 cm^-3,,,Ga,
Systematic_Generation,,5e+18,InP:Ga_5.0e+18,,Inherited,,,,,,,,,DOPED_003625,,,Doped_Semiconductor,,,InP_Ga,InP + Ga @ 5.0e+18 cm^-3,,,Ga,
Systematic_Generation,,1e+19,InP:Ga_1.0e+19,,Inherited,,,,,,,,,DOPED_003626,,,Doped_Semiconductor,,,InP_Ga,InP + Ga @ 1.0e+19 cm^-3,,,Ga,
Systematic_Generation,,5e+19,InP:Ga_5.0e+19,,Inherited,,,,,,,,,DOPED_003627,,,Doped_Semiconductor,,,InP_Ga,InP + Ga @ 5.0e+19 cm^-3,,,Ga,
Systematic_Generation,,1e+20,InP:Ga_1.0e+20,,Inherited,,,,,,,,,DOPED_003628,,,Doped_Semiconductor,,,InP_Ga,InP + Ga @ 1.0e+20 cm^-3,,,Ga,
Systematic_Generation,,1e+21,InP:Ga_1.0e+21,,Inherited,,,,,,,,,DOPED_003629,,,Doped_Semiconductor,,,InP_Ga,InP + Ga @ 1.0e+21 cm^-3,,,Ga,
Systematic_Generation,,1000000000000000.0,InP:In_1.0e+15,,Inherited,,,,,,,,,DOPED_003630,,,Doped_Semiconductor,,,InP_In,InP + In @ 1.0e+15 cm^-3,,,In,
Systematic_Generation,,5000000000000000.0,InP:In_5.0e+15,,Inherited,,,,,,,,,DOPED_003631,,,Doped_Semiconductor,,,InP_In,InP + In @ 5.0e+15 cm^-3,,,In,
Systematic_Generation,,1e+16,InP:In_1.0e+16,,Inherited,,,,,,,,,DOPED_003632,,,Doped_Semiconductor,,,InP_In,InP + In @ 1.0e+16 cm^-3,,,In,
Systematic_Generation,,5e+16,InP:In_5.0e+16,,Inherited,,,,,,,,,DOPED_003633,,,Doped_Semiconductor,,,InP_In,InP + In @ 5.0e+16 cm^-3,,,In,
Systematic_Generation,,1e+17,InP:In_1.0e+17,,Inherited,,,,,,,,,DOPED_003634,,,Doped_Semiconductor,,,InP_In,InP + In @ 1.0e+17 cm^-3,,,In,
Systematic_Generation,,5e+17,InP:In_5.0e+17,,Inherited,,,,,,,,,DOPED_003635,,,Doped_Semiconductor,,,InP_In,InP + In @ 5.0e+17 cm^-3,,,In,
Systematic_Generation,,1e+18,InP:In_1.0e+18,,Inherited,,,,,,,,,DOPED_003636,,,Doped_Semiconductor,,,InP_In,InP + In @ 1.0e+18 cm^-3,,,In,
Systematic_Generation,,5e+18,InP:In_5.0e+18,,Inherited,,,,,,,,,DOPED_003637,,,Doped_Semiconductor,,,InP_In,InP + In @ 5.0e+18 cm^-3,,,In,
Systematic_Generation,,1e+19,InP:In_1.0e+19,,Inherited,,,,,,,,,DOPED_003638,,,Doped_Semiconductor,,,InP_In,InP + In @ 1.0e+19 cm^-3,,,In,
Systematic_Generation,,5e+19,InP:In_5.0e+19,,Inherited,,,,,,,,,DOPED_003639,,,Doped_Semiconductor,,,InP_In,InP + In @ 5.0e+19 cm^-3,,,In,
Systematic_Generation,,1e+20,InP:In_1.0e+20,,Inherited,,,,,,,,,DOPED_003640,,,Doped_Semiconductor,,,InP_In,InP + In @ 1.0e+20 cm^-3,,,In,
Systematic_Generation,,1e+21,InP:In_1.0e+21,,Inherited,,,,,,,,,DOPED_003641,,,Doped_Semiconductor,,,InP_In,InP + In @ 1.0e+21 cm^-3,,,In,
Systematic_Generation,,1000000000000000.0,InP:Bi_1.0e+15,,Inherited,,,,,,,,,DOPED_003642,,,Doped_Semiconductor,,,InP_Bi,InP + Bi @ 1.0e+15 cm^-3,,,Bi,
Systematic_Generation,,5000000000000000.0,InP:Bi_5.0e+15,,Inherited,,,,,,,,,DOPED_003643,,,Doped_Semiconductor,,,InP_Bi,InP + Bi @ 5.0e+15 cm^-3,,,Bi,
Systematic_Generation,,1e+16,InP:Bi_1.0e+16,,Inherited,,,,,,,,,DOPED_003644,,,Doped_Semiconductor,,,InP_Bi,InP + Bi @ 1.0e+16 cm^-3,,,Bi,
Systematic_Generation,,5e+16,InP:Bi_5.0e+16,,Inherited,,,,,,,,,DOPED_003645,,,Doped_Semiconductor,,,InP_Bi,InP + Bi @ 5.0e+16 cm^-3,,,Bi,
Systematic_Generation,,1e+17,InP:Bi_1.0e+17,,Inherited,,,,,,,,,DOPED_003646,,,Doped_Semiconductor,,,InP_Bi,InP + Bi @ 1.0e+17 cm^-3,,,Bi,
Systematic_Generation,,5e+17,InP:Bi_5.0e+17,,Inherited,,,,,,,,,DOPED_003647,,,Doped_Semiconductor,,,InP_Bi,InP + Bi @ 5.0e+17 cm^-3,,,Bi,
Systematic_Generation,,1e+18,InP:Bi_1.0e+18,,Inherited,,,,,,,,,DOPED_003648,,,Doped_Semiconductor,,,InP_Bi,InP + Bi @ 1.0e+18 cm^-3,,,Bi,
Systematic_Generation,,5e+18,InP:Bi_5.0e+18,,Inherited,,,,,,,,,DOPED_003649,,,Doped_Semiconductor,,,InP_Bi,InP + Bi @ 5.0e+18 cm^-3,,,Bi,
Systematic_Generation,,1e+19,InP:Bi_1.0e+19,,Inherited,,,,,,,,,DOPED_003650,,,Doped_Semiconductor,,,InP_Bi,InP + Bi @ 1.0e+19 cm^-3,,,Bi,
Systematic_Generation,,5e+19,InP:Bi_5.0e+19,,Inherited,,,,,,,,,DOPED_003651,,,Doped_Semiconductor,,,InP_Bi,InP + Bi @ 5.0e+19 cm^-3,,,Bi,
Systematic_Generation,,1e+20,InP:Bi_1.0e+20,,Inherited,,,,,,,,,DOPED_003652,,,Doped_Semiconductor,,,InP_Bi,InP + Bi @ 1.0e+20 cm^-3,,,Bi,
Systematic_Generation,,1e+21,InP:Bi_1.0e+21,,Inherited,,,,,,,,,DOPED_003653,,,Doped_Semiconductor,,,InP_Bi,InP + Bi @ 1.0e+21 cm^-3,,,Bi,
Systematic_Generation,,1000000000000000.0,InP:Li_1.0e+15,,Inherited,,,,,,,,,DOPED_003654,,,Doped_Semiconductor,,,InP_Li,InP + Li @ 1.0e+15 cm^-3,,,Li,
Systematic_Generation,,5000000000000000.0,InP:Li_5.0e+15,,Inherited,,,,,,,,,DOPED_003655,,,Doped_Semiconductor,,,InP_Li,InP + Li @ 5.0e+15 cm^-3,,,Li,
Systematic_Generation,,1e+16,InP:Li_1.0e+16,,Inherited,,,,,,,,,DOPED_003656,,,Doped_Semiconductor,,,InP_Li,InP + Li @ 1.0e+16 cm^-3,,,Li,
Systematic_Generation,,5e+16,InP:Li_5.0e+16,,Inherited,,,,,,,,,DOPED_003657,,,Doped_Semiconductor,,,InP_Li,InP + Li @ 5.0e+16 cm^-3,,,Li,
Systematic_Generation,,1e+17,InP:Li_1.0e+17,,Inherited,,,,,,,,,DOPED_003658,,,Doped_Semiconductor,,,InP_Li,InP + Li @ 1.0e+17 cm^-3,,,Li,
Systematic_Generation,,5e+17,InP:Li_5.0e+17,,Inherited,,,,,,,,,DOPED_003659,,,Doped_Semiconductor,,,InP_Li,InP + Li @ 5.0e+17 cm^-3,,,Li,
Systematic_Generation,,1e+18,InP:Li_1.0e+18,,Inherited,,,,,,,,,DOPED_003660,,,Doped_Semiconductor,,,InP_Li,InP + Li @ 1.0e+18 cm^-3,,,Li,
Systematic_Generation,,5e+18,InP:Li_5.0e+18,,Inherited,,,,,,,,,DOPED_003661,,,Doped_Semiconductor,,,InP_Li,InP + Li @ 5.0e+18 cm^-3,,,Li,
Systematic_Generation,,1e+19,InP:Li_1.0e+19,,Inherited,,,,,,,,,DOPED_003662,,,Doped_Semiconductor,,,InP_Li,InP + Li @ 1.0e+19 cm^-3,,,Li,
Systematic_Generation,,5e+19,InP:Li_5.0e+19,,Inherited,,,,,,,,,DOPED_003663,,,Doped_Semiconductor,,,InP_Li,InP + Li @ 5.0e+19 cm^-3,,,Li,
Systematic_Generation,,1e+20,InP:Li_1.0e+20,,Inherited,,,,,,,,,DOPED_003664,,,Doped_Semiconductor,,,InP_Li,InP + Li @ 1.0e+20 cm^-3,,,Li,
Systematic_Generation,,1e+21,InP:Li_1.0e+21,,Inherited,,,,,,,,,DOPED_003665,,,Doped_Semiconductor,,,InP_Li,InP + Li @ 1.0e+21 cm^-3,,,Li,
Systematic_Generation,,1000000000000000.0,InP:S_1.0e+15,,Inherited,,,,,,,,,DOPED_003666,,,Doped_Semiconductor,,,InP_S,InP + S @ 1.0e+15 cm^-3,,,S,
Systematic_Generation,,5000000000000000.0,InP:S_5.0e+15,,Inherited,,,,,,,,,DOPED_003667,,,Doped_Semiconductor,,,InP_S,InP + S @ 5.0e+15 cm^-3,,,S,
Systematic_Generation,,1e+16,InP:S_1.0e+16,,Inherited,,,,,,,,,DOPED_003668,,,Doped_Semiconductor,,,InP_S,InP + S @ 1.0e+16 cm^-3,,,S,
Systematic_Generation,,5e+16,InP:S_5.0e+16,,Inherited,,,,,,,,,DOPED_003669,,,Doped_Semiconductor,,,InP_S,InP + S @ 5.0e+16 cm^-3,,,S,
Systematic_Generation,,1e+17,InP:S_1.0e+17,,Inherited,,,,,,,,,DOPED_003670,,,Doped_Semiconductor,,,InP_S,InP + S @ 1.0e+17 cm^-3,,,S,
Systematic_Generation,,5e+17,InP:S_5.0e+17,,Inherited,,,,,,,,,DOPED_003671,,,Doped_Semiconductor,,,InP_S,InP + S @ 5.0e+17 cm^-3,,,S,
Systematic_Generation,,1e+18,InP:S_1.0e+18,,Inherited,,,,,,,,,DOPED_003672,,,Doped_Semiconductor,,,InP_S,InP + S @ 1.0e+18 cm^-3,,,S,
Systematic_Generation,,5e+18,InP:S_5.0e+18,,Inherited,,,,,,,,,DOPED_003673,,,Doped_Semiconductor,,,InP_S,InP + S @ 5.0e+18 cm^-3,,,S,
Systematic_Generation,,1e+19,InP:S_1.0e+19,,Inherited,,,,,,,,,DOPED_003674,,,Doped_Semiconductor,,,InP_S,InP + S @ 1.0e+19 cm^-3,,,S,
Systematic_Generation,,5e+19,InP:S_5.0e+19,,Inherited,,,,,,,,,DOPED_003675,,,Doped_Semiconductor,,,InP_S,InP + S @ 5.0e+19 cm^-3,,,S,
Systematic_Generation,,1e+20,InP:S_1.0e+20,,Inherited,,,,,,,,,DOPED_003676,,,Doped_Semiconductor,,,InP_S,InP + S @ 1.0e+20 cm^-3,,,S,
Systematic_Generation,,1e+21,InP:S_1.0e+21,,Inherited,,,,,,,,,DOPED_003677,,,Doped_Semiconductor,,,InP_S,InP + S @ 1.0e+21 cm^-3,,,S,
Systematic_Generation,,1000000000000000.0,InP:Se_1.0e+15,,Inherited,,,,,,,,,DOPED_003678,,,Doped_Semiconductor,,,InP_Se,InP + Se @ 1.0e+15 cm^-3,,,Se,