source,n_elements,doping_concentration,name,termination,space_group,doping_level,volume_fraction,weight_percent,lattice_c,temperature,reinforcement,matrix,layers,material_id,molecular_weight,deposition_method,type,lattice_b,pdi,formula,composition,lattice_a,thickness_nm,dopant,substrate
Systematic_Generation,,1000000000000000.0,GaAs:As_1.0e+15,,Inherited,,,,,,,,,DOPED_003258,,,Doped_Semiconductor,,,GaAs_As,GaAs + As @ 1.0e+15 cm^-3,,,As,
Systematic_Generation,,5000000000000000.0,GaAs:As_5.0e+15,,Inherited,,,,,,,,,DOPED_003259,,,Doped_Semiconductor,,,GaAs_As,GaAs + As @ 5.0e+15 cm^-3,,,As,
Systematic_Generation,,1e+16,GaAs:As_1.0e+16,,Inherited,,,,,,,,,DOPED_003260,,,Doped_Semiconductor,,,GaAs_As,GaAs + As @ 1.0e+16 cm^-3,,,As,
Systematic_Generation,,5e+16,GaAs:As_5.0e+16,,Inherited,,,,,,,,,DOPED_003261,,,Doped_Semiconductor,,,GaAs_As,GaAs + As @ 5.0e+16 cm^-3,,,As,
Systematic_Generation,,1e+17,GaAs:As_1.0e+17,,Inherited,,,,,,,,,DOPED_003262,,,Doped_Semiconductor,,,GaAs_As,GaAs + As @ 1.0e+17 cm^-3,,,As,
Systematic_Generation,,5e+17,GaAs:As_5.0e+17,,Inherited,,,,,,,,,DOPED_003263,,,Doped_Semiconductor,,,GaAs_As,GaAs + As @ 5.0e+17 cm^-3,,,As,
Systematic_Generation,,1e+18,GaAs:As_1.0e+18,,Inherited,,,,,,,,,DOPED_003264,,,Doped_Semiconductor,,,GaAs_As,GaAs + As @ 1.0e+18 cm^-3,,,As,
Systematic_Generation,,5e+18,GaAs:As_5.0e+18,,Inherited,,,,,,,,,DOPED_003265,,,Doped_Semiconductor,,,GaAs_As,GaAs + As @ 5.0e+18 cm^-3,,,As,
Systematic_Generation,,1e+19,GaAs:As_1.0e+19,,Inherited,,,,,,,,,DOPED_003266,,,Doped_Semiconductor,,,GaAs_As,GaAs + As @ 1.0e+19 cm^-3,,,As,
Systematic_Generation,,5e+19,GaAs:As_5.0e+19,,Inherited,,,,,,,,,DOPED_003267,,,Doped_Semiconductor,,,GaAs_As,GaAs + As @ 5.0e+19 cm^-3,,,As,
Systematic_Generation,,1e+20,GaAs:As_1.0e+20,,Inherited,,,,,,,,,DOPED_003268,,,Doped_Semiconductor,,,GaAs_As,GaAs + As @ 1.0e+20 cm^-3,,,As,
Systematic_Generation,,1e+21,GaAs:As_1.0e+21,,Inherited,,,,,,,,,DOPED_003269,,,Doped_Semiconductor,,,GaAs_As,GaAs + As @ 1.0e+21 cm^-3,,,As,
Systematic_Generation,,1000000000000000.0,GaAs:Sb_1.0e+15,,Inherited,,,,,,,,,DOPED_003270,,,Doped_Semiconductor,,,GaAs_Sb,GaAs + Sb @ 1.0e+15 cm^-3,,,Sb,
Systematic_Generation,,5000000000000000.0,GaAs:Sb_5.0e+15,,Inherited,,,,,,,,,DOPED_003271,,,Doped_Semiconductor,,,GaAs_Sb,GaAs + Sb @ 5.0e+15 cm^-3,,,Sb,
Systematic_Generation,,1e+16,GaAs:Sb_1.0e+16,,Inherited,,,,,,,,,DOPED_003272,,,Doped_Semiconductor,,,GaAs_Sb,GaAs + Sb @ 1.0e+16 cm^-3,,,Sb,
Systematic_Generation,,5e+16,GaAs:Sb_5.0e+16,,Inherited,,,,,,,,,DOPED_003273,,,Doped_Semiconductor,,,GaAs_Sb,GaAs + Sb @ 5.0e+16 cm^-3,,,Sb,
Systematic_Generation,,1e+17,GaAs:Sb_1.0e+17,,Inherited,,,,,,,,,DOPED_003274,,,Doped_Semiconductor,,,GaAs_Sb,GaAs + Sb @ 1.0e+17 cm^-3,,,Sb,
Systematic_Generation,,5e+17,GaAs:Sb_5.0e+17,,Inherited,,,,,,,,,DOPED_003275,,,Doped_Semiconductor,,,GaAs_Sb,GaAs + Sb @ 5.0e+17 cm^-3,,,Sb,
Systematic_Generation,,1e+18,GaAs:Sb_1.0e+18,,Inherited,,,,,,,,,DOPED_003276,,,Doped_Semiconductor,,,GaAs_Sb,GaAs + Sb @ 1.0e+18 cm^-3,,,Sb,
Systematic_Generation,,5e+18,GaAs:Sb_5.0e+18,,Inherited,,,,,,,,,DOPED_003277,,,Doped_Semiconductor,,,GaAs_Sb,GaAs + Sb @ 5.0e+18 cm^-3,,,Sb,
Systematic_Generation,,1e+19,GaAs:Sb_1.0e+19,,Inherited,,,,,,,,,DOPED_003278,,,Doped_Semiconductor,,,GaAs_Sb,GaAs + Sb @ 1.0e+19 cm^-3,,,Sb,
Systematic_Generation,,5e+19,GaAs:Sb_5.0e+19,,Inherited,,,,,,,,,DOPED_003279,,,Doped_Semiconductor,,,GaAs_Sb,GaAs + Sb @ 5.0e+19 cm^-3,,,Sb,
Systematic_Generation,,1e+20,GaAs:Sb_1.0e+20,,Inherited,,,,,,,,,DOPED_003280,,,Doped_Semiconductor,,,GaAs_Sb,GaAs + Sb @ 1.0e+20 cm^-3,,,Sb,
Systematic_Generation,,1e+21,GaAs:Sb_1.0e+21,,Inherited,,,,,,,,,DOPED_003281,,,Doped_Semiconductor,,,GaAs_Sb,GaAs + Sb @ 1.0e+21 cm^-3,,,Sb,
Systematic_Generation,,1000000000000000.0,GaAs:N_1.0e+15,,Inherited,,,,,,,,,DOPED_003282,,,Doped_Semiconductor,,,GaAs_N,GaAs + N @ 1.0e+15 cm^-3,,,N,
Systematic_Generation,,5000000000000000.0,GaAs:N_5.0e+15,,Inherited,,,,,,,,,DOPED_003283,,,Doped_Semiconductor,,,GaAs_N,GaAs + N @ 5.0e+15 cm^-3,,,N,
Systematic_Generation,,1e+16,GaAs:N_1.0e+16,,Inherited,,,,,,,,,DOPED_003284,,,Doped_Semiconductor,,,GaAs_N,GaAs + N @ 1.0e+16 cm^-3,,,N,
Systematic_Generation,,5e+16,GaAs:N_5.0e+16,,Inherited,,,,,,,,,DOPED_003285,,,Doped_Semiconductor,,,GaAs_N,GaAs + N @ 5.0e+16 cm^-3,,,N,
Systematic_Generation,,1e+17,GaAs:N_1.0e+17,,Inherited,,,,,,,,,DOPED_003286,,,Doped_Semiconductor,,,GaAs_N,GaAs + N @ 1.0e+17 cm^-3,,,N,
Systematic_Generation,,5e+17,GaAs:N_5.0e+17,,Inherited,,,,,,,,,DOPED_003287,,,Doped_Semiconductor,,,GaAs_N,GaAs + N @ 5.0e+17 cm^-3,,,N,
Systematic_Generation,,1e+18,GaAs:N_1.0e+18,,Inherited,,,,,,,,,DOPED_003288,,,Doped_Semiconductor,,,GaAs_N,GaAs + N @ 1.0e+18 cm^-3,,,N,
Systematic_Generation,,5e+18,GaAs:N_5.0e+18,,Inherited,,,,,,,,,DOPED_003289,,,Doped_Semiconductor,,,GaAs_N,GaAs + N @ 5.0e+18 cm^-3,,,N,
Systematic_Generation,,1e+19,GaAs:N_1.0e+19,,Inherited,,,,,,,,,DOPED_003290,,,Doped_Semiconductor,,,GaAs_N,GaAs + N @ 1.0e+19 cm^-3,,,N,
Systematic_Generation,,5e+19,GaAs:N_5.0e+19,,Inherited,,,,,,,,,DOPED_003291,,,Doped_Semiconductor,,,GaAs_N,GaAs + N @ 5.0e+19 cm^-3,,,N,
Systematic_Generation,,1e+20,GaAs:N_1.0e+20,,Inherited,,,,,,,,,DOPED_003292,,,Doped_Semiconductor,,,GaAs_N,GaAs + N @ 1.0e+20 cm^-3,,,N,
Systematic_Generation,,1e+21,GaAs:N_1.0e+21,,Inherited,,,,,,,,,DOPED_003293,,,Doped_Semiconductor,,,GaAs_N,GaAs + N @ 1.0e+21 cm^-3,,,N,
Systematic_Generation,,1000000000000000.0,GaAs:Al_1.0e+15,,Inherited,,,,,,,,,DOPED_003294,,,Doped_Semiconductor,,,GaAs_Al,GaAs + Al @ 1.0e+15 cm^-3,,,Al,
Systematic_Generation,,5000000000000000.0,GaAs:Al_5.0e+15,,Inherited,,,,,,,,,DOPED_003295,,,Doped_Semiconductor,,,GaAs_Al,GaAs + Al @ 5.0e+15 cm^-3,,,Al,
Systematic_Generation,,1e+16,GaAs:Al_1.0e+16,,Inherited,,,,,,,,,DOPED_003296,,,Doped_Semiconductor,,,GaAs_Al,GaAs + Al @ 1.0e+16 cm^-3,,,Al,
Systematic_Generation,,5e+16,GaAs:Al_5.0e+16,,Inherited,,,,,,,,,DOPED_003297,,,Doped_Semiconductor,,,GaAs_Al,GaAs + Al @ 5.0e+16 cm^-3,,,Al,
Systematic_Generation,,1e+17,GaAs:Al_1.0e+17,,Inherited,,,,,,,,,DOPED_003298,,,Doped_Semiconductor,,,GaAs_Al,GaAs + Al @ 1.0e+17 cm^-3,,,Al,
Systematic_Generation,,5e+17,GaAs:Al_5.0e+17,,Inherited,,,,,,,,,DOPED_003299,,,Doped_Semiconductor,,,GaAs_Al,GaAs + Al @ 5.0e+17 cm^-3,,,Al,
Systematic_Generation,,1e+18,GaAs:Al_1.0e+18,,Inherited,,,,,,,,,DOPED_003300,,,Doped_Semiconductor,,,GaAs_Al,GaAs + Al @ 1.0e+18 cm^-3,,,Al,
Systematic_Generation,,5e+18,GaAs:Al_5.0e+18,,Inherited,,,,,,,,,DOPED_003301,,,Doped_Semiconductor,,,GaAs_Al,GaAs + Al @ 5.0e+18 cm^-3,,,Al,
Systematic_Generation,,1e+19,GaAs:Al_1.0e+19,,Inherited,,,,,,,,,DOPED_003302,,,Doped_Semiconductor,,,GaAs_Al,GaAs + Al @ 1.0e+19 cm^-3,,,Al,
Systematic_Generation,,5e+19,GaAs:Al_5.0e+19,,Inherited,,,,,,,,,DOPED_003303,,,Doped_Semiconductor,,,GaAs_Al,GaAs + Al @ 5.0e+19 cm^-3,,,Al,
Systematic_Generation,,1e+20,GaAs:Al_1.0e+20,,Inherited,,,,,,,,,DOPED_003304,,,Doped_Semiconductor,,,GaAs_Al,GaAs + Al @ 1.0e+20 cm^-3,,,Al,
Systematic_Generation,,1e+21,GaAs:Al_1.0e+21,,Inherited,,,,,,,,,DOPED_003305,,,Doped_Semiconductor,,,GaAs_Al,GaAs + Al @ 1.0e+21 cm^-3,,,Al,
Systematic_Generation,,1000000000000000.0,GaAs:Ga_1.0e+15,,Inherited,,,,,,,,,DOPED_003306,,,Doped_Semiconductor,,,GaAs_Ga,GaAs + Ga @ 1.0e+15 cm^-3,,,Ga,
Systematic_Generation,,5000000000000000.0,GaAs:Ga_5.0e+15,,Inherited,,,,,,,,,DOPED_003307,,,Doped_Semiconductor,,,GaAs_Ga,GaAs + Ga @ 5.0e+15 cm^-3,,,Ga,
Systematic_Generation,,1e+16,GaAs:Ga_1.0e+16,,Inherited,,,,,,,,,DOPED_003308,,,Doped_Semiconductor,,,GaAs_Ga,GaAs + Ga @ 1.0e+16 cm^-3,,,Ga,
Systematic_Generation,,5e+16,GaAs:Ga_5.0e+16,,Inherited,,,,,,,,,DOPED_003309,,,Doped_Semiconductor,,,GaAs_Ga,GaAs + Ga @ 5.0e+16 cm^-3,,,Ga,
Systematic_Generation,,1e+17,GaAs:Ga_1.0e+17,,Inherited,,,,,,,,,DOPED_003310,,,Doped_Semiconductor,,,GaAs_Ga,GaAs + Ga @ 1.0e+17 cm^-3,,,Ga,
Systematic_Generation,,5e+17,GaAs:Ga_5.0e+17,,Inherited,,,,,,,,,DOPED_003311,,,Doped_Semiconductor,,,GaAs_Ga,GaAs + Ga @ 5.0e+17 cm^-3,,,Ga,
Systematic_Generation,,1e+18,GaAs:Ga_1.0e+18,,Inherited,,,,,,,,,DOPED_003312,,,Doped_Semiconductor,,,GaAs_Ga,GaAs + Ga @ 1.0e+18 cm^-3,,,Ga,
Systematic_Generation,,5e+18,GaAs:Ga_5.0e+18,,Inherited,,,,,,,,,DOPED_003313,,,Doped_Semiconductor,,,GaAs_Ga,GaAs + Ga @ 5.0e+18 cm^-3,,,Ga,
Systematic_Generation,,1e+19,GaAs:Ga_1.0e+19,,Inherited,,,,,,,,,DOPED_003314,,,Doped_Semiconductor,,,GaAs_Ga,GaAs + Ga @ 1.0e+19 cm^-3,,,Ga,
Systematic_Generation,,5e+19,GaAs:Ga_5.0e+19,,Inherited,,,,,,,,,DOPED_003315,,,Doped_Semiconductor,,,GaAs_Ga,GaAs + Ga @ 5.0e+19 cm^-3,,,Ga,
Systematic_Generation,,1e+20,GaAs:Ga_1.0e+20,,Inherited,,,,,,,,,DOPED_003316,,,Doped_Semiconductor,,,GaAs_Ga,GaAs + Ga @ 1.0e+20 cm^-3,,,Ga,
Systematic_Generation,,1e+21,GaAs:Ga_1.0e+21,,Inherited,,,,,,,,,DOPED_003317,,,Doped_Semiconductor,,,GaAs_Ga,GaAs + Ga @ 1.0e+21 cm^-3,,,Ga,
Systematic_Generation,,1000000000000000.0,GaAs:In_1.0e+15,,Inherited,,,,,,,,,DOPED_003318,,,Doped_Semiconductor,,,GaAs_In,GaAs + In @ 1.0e+15 cm^-3,,,In,
Systematic_Generation,,5000000000000000.0,GaAs:In_5.0e+15,,Inherited,,,,,,,,,DOPED_003319,,,Doped_Semiconductor,,,GaAs_In,GaAs + In @ 5.0e+15 cm^-3,,,In,
Systematic_Generation,,1e+16,GaAs:In_1.0e+16,,Inherited,,,,,,,,,DOPED_003320,,,Doped_Semiconductor,,,GaAs_In,GaAs + In @ 1.0e+16 cm^-3,,,In,
Systematic_Generation,,5e+16,GaAs:In_5.0e+16,,Inherited,,,,,,,,,DOPED_003321,,,Doped_Semiconductor,,,GaAs_In,GaAs + In @ 5.0e+16 cm^-3,,,In,
Systematic_Generation,,1e+17,GaAs:In_1.0e+17,,Inherited,,,,,,,,,DOPED_003322,,,Doped_Semiconductor,,,GaAs_In,GaAs + In @ 1.0e+17 cm^-3,,,In,
Systematic_Generation,,5e+17,GaAs:In_5.0e+17,,Inherited,,,,,,,,,DOPED_003323,,,Doped_Semiconductor,,,GaAs_In,GaAs + In @ 5.0e+17 cm^-3,,,In,
Systematic_Generation,,1e+18,GaAs:In_1.0e+18,,Inherited,,,,,,,,,DOPED_003324,,,Doped_Semiconductor,,,GaAs_In,GaAs + In @ 1.0e+18 cm^-3,,,In,
Systematic_Generation,,5e+18,GaAs:In_5.0e+18,,Inherited,,,,,,,,,DOPED_003325,,,Doped_Semiconductor,,,GaAs_In,GaAs + In @ 5.0e+18 cm^-3,,,In,
Systematic_Generation,,1e+19,GaAs:In_1.0e+19,,Inherited,,,,,,,,,DOPED_003326,,,Doped_Semiconductor,,,GaAs_In,GaAs + In @ 1.0e+19 cm^-3,,,In,
Systematic_Generation,,5e+19,GaAs:In_5.0e+19,,Inherited,,,,,,,,,DOPED_003327,,,Doped_Semiconductor,,,GaAs_In,GaAs + In @ 5.0e+19 cm^-3,,,In,
Systematic_Generation,,1e+20,GaAs:In_1.0e+20,,Inherited,,,,,,,,,DOPED_003328,,,Doped_Semiconductor,,,GaAs_In,GaAs + In @ 1.0e+20 cm^-3,,,In,
Systematic_Generation,,1e+21,GaAs:In_1.0e+21,,Inherited,,,,,,,,,DOPED_003329,,,Doped_Semiconductor,,,GaAs_In,GaAs + In @ 1.0e+21 cm^-3,,,In,
Systematic_Generation,,1000000000000000.0,GaAs:Bi_1.0e+15,,Inherited,,,,,,,,,DOPED_003330,,,Doped_Semiconductor,,,GaAs_Bi,GaAs + Bi @ 1.0e+15 cm^-3,,,Bi,
Systematic_Generation,,5000000000000000.0,GaAs:Bi_5.0e+15,,Inherited,,,,,,,,,DOPED_003331,,,Doped_Semiconductor,,,GaAs_Bi,GaAs + Bi @ 5.0e+15 cm^-3,,,Bi,
Systematic_Generation,,1e+16,GaAs:Bi_1.0e+16,,Inherited,,,,,,,,,DOPED_003332,,,Doped_Semiconductor,,,GaAs_Bi,GaAs + Bi @ 1.0e+16 cm^-3,,,Bi,
Systematic_Generation,,5e+16,GaAs:Bi_5.0e+16,,Inherited,,,,,,,,,DOPED_003333,,,Doped_Semiconductor,,,GaAs_Bi,GaAs + Bi @ 5.0e+16 cm^-3,,,Bi,
Systematic_Generation,,1e+17,GaAs:Bi_1.0e+17,,Inherited,,,,,,,,,DOPED_003334,,,Doped_Semiconductor,,,GaAs_Bi,GaAs + Bi @ 1.0e+17 cm^-3,,,Bi,
Systematic_Generation,,5e+17,GaAs:Bi_5.0e+17,,Inherited,,,,,,,,,DOPED_003335,,,Doped_Semiconductor,,,GaAs_Bi,GaAs + Bi @ 5.0e+17 cm^-3,,,Bi,
Systematic_Generation,,1e+18,GaAs:Bi_1.0e+18,,Inherited,,,,,,,,,DOPED_003336,,,Doped_Semiconductor,,,GaAs_Bi,GaAs + Bi @ 1.0e+18 cm^-3,,,Bi,
Systematic_Generation,,5e+18,GaAs:Bi_5.0e+18,,Inherited,,,,,,,,,DOPED_003337,,,Doped_Semiconductor,,,GaAs_Bi,GaAs + Bi @ 5.0e+18 cm^-3,,,Bi,
Systematic_Generation,,1e+19,GaAs:Bi_1.0e+19,,Inherited,,,,,,,,,DOPED_003338,,,Doped_Semiconductor,,,GaAs_Bi,GaAs + Bi @ 1.0e+19 cm^-3,,,Bi,
Systematic_Generation,,5e+19,GaAs:Bi_5.0e+19,,Inherited,,,,,,,,,DOPED_003339,,,Doped_Semiconductor,,,GaAs_Bi,GaAs + Bi @ 5.0e+19 cm^-3,,,Bi,
Systematic_Generation,,1e+20,GaAs:Bi_1.0e+20,,Inherited,,,,,,,,,DOPED_003340,,,Doped_Semiconductor,,,GaAs_Bi,GaAs + Bi @ 1.0e+20 cm^-3,,,Bi,
Systematic_Generation,,1e+21,GaAs:Bi_1.0e+21,,Inherited,,,,,,,,,DOPED_003341,,,Doped_Semiconductor,,,GaAs_Bi,GaAs + Bi @ 1.0e+21 cm^-3,,,Bi,
Systematic_Generation,,1000000000000000.0,GaAs:Li_1.0e+15,,Inherited,,,,,,,,,DOPED_003342,,,Doped_Semiconductor,,,GaAs_Li,GaAs + Li @ 1.0e+15 cm^-3,,,Li,
Systematic_Generation,,5000000000000000.0,GaAs:Li_5.0e+15,,Inherited,,,,,,,,,DOPED_003343,,,Doped_Semiconductor,,,GaAs_Li,GaAs + Li @ 5.0e+15 cm^-3,,,Li,
Systematic_Generation,,1e+16,GaAs:Li_1.0e+16,,Inherited,,,,,,,,,DOPED_003344,,,Doped_Semiconductor,,,GaAs_Li,GaAs + Li @ 1.0e+16 cm^-3,,,Li,
Systematic_Generation,,5e+16,GaAs:Li_5.0e+16,,Inherited,,,,,,,,,DOPED_003345,,,Doped_Semiconductor,,,GaAs_Li,GaAs + Li @ 5.0e+16 cm^-3,,,Li,
Systematic_Generation,,1e+17,GaAs:Li_1.0e+17,,Inherited,,,,,,,,,DOPED_003346,,,Doped_Semiconductor,,,GaAs_Li,GaAs + Li @ 1.0e+17 cm^-3,,,Li,
Systematic_Generation,,5e+17,GaAs:Li_5.0e+17,,Inherited,,,,,,,,,DOPED_003347,,,Doped_Semiconductor,,,GaAs_Li,GaAs + Li @ 5.0e+17 cm^-3,,,Li,
Systematic_Generation,,1e+18,GaAs:Li_1.0e+18,,Inherited,,,,,,,,,DOPED_003348,,,Doped_Semiconductor,,,GaAs_Li,GaAs + Li @ 1.0e+18 cm^-3,,,Li,
Systematic_Generation,,5e+18,GaAs:Li_5.0e+18,,Inherited,,,,,,,,,DOPED_003349,,,Doped_Semiconductor,,,GaAs_Li,GaAs + Li @ 5.0e+18 cm^-3,,,Li,
Systematic_Generation,,1e+19,GaAs:Li_1.0e+19,,Inherited,,,,,,,,,DOPED_003350,,,Doped_Semiconductor,,,GaAs_Li,GaAs + Li @ 1.0e+19 cm^-3,,,Li,
Systematic_Generation,,5e+19,GaAs:Li_5.0e+19,,Inherited,,,,,,,,,DOPED_003351,,,Doped_Semiconductor,,,GaAs_Li,GaAs + Li @ 5.0e+19 cm^-3,,,Li,
Systematic_Generation,,1e+20,GaAs:Li_1.0e+20,,Inherited,,,,,,,,,DOPED_003352,,,Doped_Semiconductor,,,GaAs_Li,GaAs + Li @ 1.0e+20 cm^-3,,,Li,
Systematic_Generation,,1e+21,GaAs:Li_1.0e+21,,Inherited,,,,,,,,,DOPED_003353,,,Doped_Semiconductor,,,GaAs_Li,GaAs + Li @ 1.0e+21 cm^-3,,,Li,
Systematic_Generation,,1000000000000000.0,GaAs:S_1.0e+15,,Inherited,,,,,,,,,DOPED_003354,,,Doped_Semiconductor,,,GaAs_S,GaAs + S @ 1.0e+15 cm^-3,,,S,
Systematic_Generation,,5000000000000000.0,GaAs:S_5.0e+15,,Inherited,,,,,,,,,DOPED_003355,,,Doped_Semiconductor,,,GaAs_S,GaAs + S @ 5.0e+15 cm^-3,,,S,
Systematic_Generation,,1e+16,GaAs:S_1.0e+16,,Inherited,,,,,,,,,DOPED_003356,,,Doped_Semiconductor,,,GaAs_S,GaAs + S @ 1.0e+16 cm^-3,,,S,
Systematic_Generation,,5e+16,GaAs:S_5.0e+16,,Inherited,,,,,,,,,DOPED_003357,,,Doped_Semiconductor,,,GaAs_S,GaAs + S @ 5.0e+16 cm^-3,,,S,
Systematic_Generation,,1e+17,GaAs:S_1.0e+17,,Inherited,,,,,,,,,DOPED_003358,,,Doped_Semiconductor,,,GaAs_S,GaAs + S @ 1.0e+17 cm^-3,,,S,
Systematic_Generation,,5e+17,GaAs:S_5.0e+17,,Inherited,,,,,,,,,DOPED_003359,,,Doped_Semiconductor,,,GaAs_S,GaAs + S @ 5.0e+17 cm^-3,,,S,
Systematic_Generation,,1e+18,GaAs:S_1.0e+18,,Inherited,,,,,,,,,DOPED_003360,,,Doped_Semiconductor,,,GaAs_S,GaAs + S @ 1.0e+18 cm^-3,,,S,
Systematic_Generation,,5e+18,GaAs:S_5.0e+18,,Inherited,,,,,,,,,DOPED_003361,,,Doped_Semiconductor,,,GaAs_S,GaAs + S @ 5.0e+18 cm^-3,,,S,
Systematic_Generation,,1e+19,GaAs:S_1.0e+19,,Inherited,,,,,,,,,DOPED_003362,,,Doped_Semiconductor,,,GaAs_S,GaAs + S @ 1.0e+19 cm^-3,,,S,
Systematic_Generation,,5e+19,GaAs:S_5.0e+19,,Inherited,,,,,,,,,DOPED_003363,,,Doped_Semiconductor,,,GaAs_S,GaAs + S @ 5.0e+19 cm^-3,,,S,
Systematic_Generation,,1e+20,GaAs:S_1.0e+20,,Inherited,,,,,,,,,DOPED_003364,,,Doped_Semiconductor,,,GaAs_S,GaAs + S @ 1.0e+20 cm^-3,,,S,
Systematic_Generation,,1e+21,GaAs:S_1.0e+21,,Inherited,,,,,,,,,DOPED_003365,,,Doped_Semiconductor,,,GaAs_S,GaAs + S @ 1.0e+21 cm^-3,,,S,
Systematic_Generation,,1000000000000000.0,GaAs:Se_1.0e+15,,Inherited,,,,,,,,,DOPED_003366,,,Doped_Semiconductor,,,GaAs_Se,GaAs + Se @ 1.0e+15 cm^-3,,,Se,
Systematic_Generation,,5000000000000000.0,GaAs:Se_5.0e+15,,Inherited,,,,,,,,,DOPED_003367,,,Doped_Semiconductor,,,GaAs_Se,GaAs + Se @ 5.0e+15 cm^-3,,,Se,
Systematic_Generation,,1e+16,GaAs:Se_1.0e+16,,Inherited,,,,,,,,,DOPED_003368,,,Doped_Semiconductor,,,GaAs_Se,GaAs + Se @ 1.0e+16 cm^-3,,,Se,
Systematic_Generation,,5e+16,GaAs:Se_5.0e+16,,Inherited,,,,,,,,,DOPED_003369,,,Doped_Semiconductor,,,GaAs_Se,GaAs + Se @ 5.0e+16 cm^-3,,,Se,
Systematic_Generation,,1e+17,GaAs:Se_1.0e+17,,Inherited,,,,,,,,,DOPED_003370,,,Doped_Semiconductor,,,GaAs_Se,GaAs + Se @ 1.0e+17 cm^-3,,,Se,
Systematic_Generation,,5e+17,GaAs:Se_5.0e+17,,Inherited,,,,,,,,,DOPED_003371,,,Doped_Semiconductor,,,GaAs_Se,GaAs + Se @ 5.0e+17 cm^-3,,,Se,
Systematic_Generation,,1e+18,GaAs:Se_1.0e+18,,Inherited,,,,,,,,,DOPED_003372,,,Doped_Semiconductor,,,GaAs_Se,GaAs + Se @ 1.0e+18 cm^-3,,,Se,
Systematic_Generation,,5e+18,GaAs:Se_5.0e+18,,Inherited,,,,,,,,,DOPED_003373,,,Doped_Semiconductor,,,GaAs_Se,GaAs + Se @ 5.0e+18 cm^-3,,,Se,
Systematic_Generation,,1e+19,GaAs:Se_1.0e+19,,Inherited,,,,,,,,,DOPED_003374,,,Doped_Semiconductor,,,GaAs_Se,GaAs + Se @ 1.0e+19 cm^-3,,,Se,
Systematic_Generation,,5e+19,GaAs:Se_5.0e+19,,Inherited,,,,,,,,,DOPED_003375,,,Doped_Semiconductor,,,GaAs_Se,GaAs + Se @ 5.0e+19 cm^-3,,,Se,
Systematic_Generation,,1e+20,GaAs:Se_1.0e+20,,Inherited,,,,,,,,,DOPED_003376,,,Doped_Semiconductor,,,GaAs_Se,GaAs + Se @ 1.0e+20 cm^-3,,,Se,
Systematic_Generation,,1e+21,GaAs:Se_1.0e+21,,Inherited,,,,,,,,,DOPED_003377,,,Doped_Semiconductor,,,GaAs_Se,GaAs + Se @ 1.0e+21 cm^-3,,,Se,
Systematic_Generation,,1000000000000000.0,GaAs:Te_1.0e+15,,Inherited,,,,,,,,,DOPED_003378,,,Doped_Semiconductor,,,GaAs_Te,GaAs + Te @ 1.0e+15 cm^-3,,,Te,
Systematic_Generation,,5000000000000000.0,GaAs:Te_5.0e+15,,Inherited,,,,,,,,,DOPED_003379,,,Doped_Semiconductor,,,GaAs_Te,GaAs + Te @ 5.0e+15 cm^-3,,,Te,
Systematic_Generation,,1e+16,GaAs:Te_1.0e+16,,Inherited,,,,,,,,,DOPED_003380,,,Doped_Semiconductor,,,GaAs_Te,GaAs + Te @ 1.0e+16 cm^-3,,,Te,
Systematic_Generation,,5e+16,GaAs:Te_5.0e+16,,Inherited,,,,,,,,,DOPED_003381,,,Doped_Semiconductor,,,GaAs_Te,GaAs + Te @ 5.0e+16 cm^-3,,,Te,
Systematic_Generation,,1e+17,GaAs:Te_1.0e+17,,Inherited,,,,,,,,,DOPED_003382,,,Doped_Semiconductor,,,GaAs_Te,GaAs + Te @ 1.0e+17 cm^-3,,,Te,
Systematic_Generation,,5e+17,GaAs:Te_5.0e+17,,Inherited,,,,,,,,,DOPED_003383,,,Doped_Semiconductor,,,GaAs_Te,GaAs + Te @ 5.0e+17 cm^-3,,,Te,
Systematic_Generation,,1e+18,GaAs:Te_1.0e+18,,Inherited,,,,,,,,,DOPED_003384,,,Doped_Semiconductor,,,GaAs_Te,GaAs + Te @ 1.0e+18 cm^-3,,,Te,
Systematic_Generation,,5e+18,GaAs:Te_5.0e+18,,Inherited,,,,,,,,,DOPED_003385,,,Doped_Semiconductor,,,GaAs_Te,GaAs + Te @ 5.0e+18 cm^-3,,,Te,
Systematic_Generation,,1e+19,GaAs:Te_1.0e+19,,Inherited,,,,,,,,,DOPED_003386,,,Doped_Semiconductor,,,GaAs_Te,GaAs + Te @ 1.0e+19 cm^-3,,,Te,
Systematic_Generation,,5e+19,GaAs:Te_5.0e+19,,Inherited,,,,,,,,,DOPED_003387,,,Doped_Semiconductor,,,GaAs_Te,GaAs + Te @ 5.0e+19 cm^-3,,,Te,
Systematic_Generation,,1e+20,GaAs:Te_1.0e+20,,Inherited,,,,,,,,,DOPED_003388,,,Doped_Semiconductor,,,GaAs_Te,GaAs + Te @ 1.0e+20 cm^-3,,,Te,
Systematic_Generation,,1e+21,GaAs:Te_1.0e+21,,Inherited,,,,,,,,,DOPED_003389,,,Doped_Semiconductor,,,GaAs_Te,GaAs + Te @ 1.0e+21 cm^-3,,,Te,
Systematic_Generation,,1000000000000000.0,GaN:B_1.0e+15,,Inherited,,,,,,,,,DOPED_003390,,,Doped_Semiconductor,,,GaN_B,GaN + B @ 1.0e+15 cm^-3,,,B,
Systematic_Generation,,5000000000000000.0,GaN:B_5.0e+15,,Inherited,,,,,,,,,DOPED_003391,,,Doped_Semiconductor,,,GaN_B,GaN + B @ 5.0e+15 cm^-3,,,B,
Systematic_Generation,,1e+16,GaN:B_1.0e+16,,Inherited,,,,,,,,,DOPED_003392,,,Doped_Semiconductor,,,GaN_B,GaN + B @ 1.0e+16 cm^-3,,,B,
Systematic_Generation,,5e+16,GaN:B_5.0e+16,,Inherited,,,,,,,,,DOPED_003393,,,Doped_Semiconductor,,,GaN_B,GaN + B @ 5.0e+16 cm^-3,,,B,
Systematic_Generation,,1e+17,GaN:B_1.0e+17,,Inherited,,,,,,,,,DOPED_003394,,,Doped_Semiconductor,,,GaN_B,GaN + B @ 1.0e+17 cm^-3,,,B,
Systematic_Generation,,5e+17,GaN:B_5.0e+17,,Inherited,,,,,,,,,DOPED_003395,,,Doped_Semiconductor,,,GaN_B,GaN + B @ 5.0e+17 cm^-3,,,B,