source,n_elements,doping_concentration,name,termination,space_group,doping_level,volume_fraction,weight_percent,lattice_c,temperature,reinforcement,matrix,layers,material_id,molecular_weight,deposition_method,type,lattice_b,pdi,formula,composition,lattice_a,thickness_nm,dopant,substrate
Systematic_Generation,,,Sr3N,,Pm-3m,,,,6.027,,,,,BIN_000881,,,Binary_Pnictide,3.852,,Sr3N,Sr:N = 3:1,4.262,,,
Systematic_Generation,,,SrN2,,Fm-3m,,,,10.545,,,,,BIN_000882,,,Binary_Pnictide,4.429,,SrN2,Sr:N = 1:2,6.915,,,
Systematic_Generation,,,Sr3N4,,P63/mmc,,,,6.973,,,,,BIN_000883,,,Binary_Pnictide,6.335,,Sr3N4,Sr:N = 3:4,5.301,,,
Systematic_Generation,,,SrP,,P63/mmc,,,,11.477,,,,,BIN_000884,,,Binary_Pnictide,6.733,,SrP,Sr:P = 1:1,3.128,,,
Systematic_Generation,,,Sr3P,,P63/mmc,,,,10.598,,,,,BIN_000885,,,Binary_Pnictide,4.43,,Sr3P,Sr:P = 3:1,4.801,,,
Systematic_Generation,,,SrP2,,Pm-3m,,,,9.968,,,,,BIN_000886,,,Binary_Pnictide,4.648,,SrP2,Sr:P = 1:2,3.269,,,
Systematic_Generation,,,Sr3P4,,P63/mmc,,,,11.074,,,,,BIN_000887,,,Binary_Pnictide,4.496,,Sr3P4,Sr:P = 3:4,4.067,,,
Systematic_Generation,,,SrAs,,P63/mmc,,,,10.304,,,,,BIN_000888,,,Binary_Pnictide,5.875,,SrAs,Sr:As = 1:1,5.54,,,
Systematic_Generation,,,Sr3As,,Pm-3m,,,,10.583,,,,,BIN_000889,,,Binary_Pnictide,3.323,,Sr3As,Sr:As = 3:1,4.749,,,
Systematic_Generation,,,SrAs2,,Pm-3m,,,,8.536,,,,,BIN_000890,,,Binary_Pnictide,6.068,,SrAs2,Sr:As = 1:2,3.36,,,
Systematic_Generation,,,Sr3As4,,Pm-3m,,,,7.421,,,,,BIN_000891,,,Binary_Pnictide,3.388,,Sr3As4,Sr:As = 3:4,6.757,,,
Systematic_Generation,,,BaN,,P63/mmc,,,,4.92,,,,,BIN_000892,,,Binary_Pnictide,5.659,,BaN,Ba:N = 1:1,3.714,,,
Systematic_Generation,,,Ba3N,,Pm-3m,,,,10.647,,,,,BIN_000893,,,Binary_Pnictide,5.03,,Ba3N,Ba:N = 3:1,3.721,,,
Systematic_Generation,,,BaN2,,P63/mmc,,,,7.423,,,,,BIN_000894,,,Binary_Pnictide,4.704,,BaN2,Ba:N = 1:2,5.573,,,
Systematic_Generation,,,Ba3N4,,P63/mmc,,,,4.917,,,,,BIN_000895,,,Binary_Pnictide,5.337,,Ba3N4,Ba:N = 3:4,5.087,,,
Systematic_Generation,,,BaP,,Fm-3m,,,,7.209,,,,,BIN_000896,,,Binary_Pnictide,4.366,,BaP,Ba:P = 1:1,5.832,,,
Systematic_Generation,,,Ba3P,,Fm-3m,,,,7.827,,,,,BIN_000897,,,Binary_Pnictide,5.67,,Ba3P,Ba:P = 3:1,3.223,,,
Systematic_Generation,,,BaP2,,Pm-3m,,,,9.354,,,,,BIN_000898,,,Binary_Pnictide,6.114,,BaP2,Ba:P = 1:2,4.605,,,
Systematic_Generation,,,Ba3P4,,Fm-3m,,,,8.197,,,,,BIN_000899,,,Binary_Pnictide,6.449,,Ba3P4,Ba:P = 3:4,5.385,,,
Systematic_Generation,,,BaAs,,P63/mmc,,,,11.545,,,,,BIN_000900,,,Binary_Pnictide,6.968,,BaAs,Ba:As = 1:1,5.321,,,
Systematic_Generation,,,Ba3As,,Pm-3m,,,,7.717,,,,,BIN_000901,,,Binary_Pnictide,5.357,,Ba3As,Ba:As = 3:1,3.599,,,
Systematic_Generation,,,BaAs2,,P63/mmc,,,,8.37,,,,,BIN_000902,,,Binary_Pnictide,4.981,,BaAs2,Ba:As = 1:2,5.696,,,
Systematic_Generation,,,Ba3As4,,P63/mmc,,,,5.796,,,,,BIN_000903,,,Binary_Pnictide,4.259,,Ba3As4,Ba:As = 3:4,5.951,,,
Systematic_Generation,,,ScN,,Pm-3m,,,,5.426,,,,,BIN_000904,,,Binary_Pnictide,3.911,,ScN,Sc:N = 1:1,4.791,,,
Systematic_Generation,,,Sc3N,,P63/mmc,,,,5.943,,,,,BIN_000905,,,Binary_Pnictide,4.069,,Sc3N,Sc:N = 3:1,5.469,,,
Systematic_Generation,,,ScN2,,P63/mmc,,,,8.262,,,,,BIN_000906,,,Binary_Pnictide,3.068,,ScN2,Sc:N = 1:2,5.511,,,
Systematic_Generation,,,Sc3N4,,P63/mmc,,,,5.569,,,,,BIN_000907,,,Binary_Pnictide,5.649,,Sc3N4,Sc:N = 3:4,3.523,,,
Systematic_Generation,,,ScP,,P63/mmc,,,,7.46,,,,,BIN_000908,,,Binary_Pnictide,6.051,,ScP,Sc:P = 1:1,4.989,,,
Systematic_Generation,,,Sc3P,,Pm-3m,,,,9.566,,,,,BIN_000909,,,Binary_Pnictide,3.082,,Sc3P,Sc:P = 3:1,5.529,,,
Systematic_Generation,,,ScP2,,Pm-3m,,,,5.828,,,,,BIN_000910,,,Binary_Pnictide,5.789,,ScP2,Sc:P = 1:2,6.089,,,
Systematic_Generation,,,Sc3P4,,P63/mmc,,,,5.469,,,,,BIN_000911,,,Binary_Pnictide,4.487,,Sc3P4,Sc:P = 3:4,5.411,,,
Systematic_Generation,,,ScAs,,P63/mmc,,,,4.592,,,,,BIN_000912,,,Binary_Pnictide,6.817,,ScAs,Sc:As = 1:1,3.306,,,
Systematic_Generation,,,Sc3As,,Fm-3m,,,,10.631,,,,,BIN_000913,,,Binary_Pnictide,4.237,,Sc3As,Sc:As = 3:1,5.525,,,
Systematic_Generation,,,ScAs2,,P63/mmc,,,,6.657,,,,,BIN_000914,,,Binary_Pnictide,3.836,,ScAs2,Sc:As = 1:2,4.949,,,
Systematic_Generation,,,Sc3As4,,Fm-3m,,,,7.457,,,,,BIN_000915,,,Binary_Pnictide,3.362,,Sc3As4,Sc:As = 3:4,6.825,,,
Systematic_Generation,,,TiN,,P63/mmc,,,,8.84,,,,,BIN_000916,,,Binary_Pnictide,4.066,,TiN,Ti:N = 1:1,6.258,,,
Systematic_Generation,,,Ti3N,,P63/mmc,,,,9.477,,,,,BIN_000917,,,Binary_Pnictide,5.222,,Ti3N,Ti:N = 3:1,3.345,,,
Systematic_Generation,,,TiN2,,Pm-3m,,,,4.478,,,,,BIN_000918,,,Binary_Pnictide,6.214,,TiN2,Ti:N = 1:2,3.186,,,
Systematic_Generation,,,Ti3N4,,Fm-3m,,,,8.029,,,,,BIN_000919,,,Binary_Pnictide,6.692,,Ti3N4,Ti:N = 3:4,5.151,,,
Systematic_Generation,,,TiP,,P63/mmc,,,,10.791,,,,,BIN_000920,,,Binary_Pnictide,4.93,,TiP,Ti:P = 1:1,6.27,,,
Systematic_Generation,,,Ti3P,,Fm-3m,,,,4.488,,,,,BIN_000921,,,Binary_Pnictide,4.59,,Ti3P,Ti:P = 3:1,6.574,,,
Systematic_Generation,,,TiP2,,Pm-3m,,,,11.14,,,,,BIN_000922,,,Binary_Pnictide,3.895,,TiP2,Ti:P = 1:2,6.24,,,
Systematic_Generation,,,Ti3P4,,Pm-3m,,,,8.327,,,,,BIN_000923,,,Binary_Pnictide,6.71,,Ti3P4,Ti:P = 3:4,5.541,,,
Systematic_Generation,,,TiAs,,Pm-3m,,,,8.719,,,,,BIN_000924,,,Binary_Pnictide,4.6,,TiAs,Ti:As = 1:1,3.048,,,
Systematic_Generation,,,Ti3As,,Fm-3m,,,,11.036,,,,,BIN_000925,,,Binary_Pnictide,6.286,,Ti3As,Ti:As = 3:1,5.131,,,
Systematic_Generation,,,TiAs2,,Fm-3m,,,,8.461,,,,,BIN_000926,,,Binary_Pnictide,5.151,,TiAs2,Ti:As = 1:2,5.64,,,
Systematic_Generation,,,Ti3As4,,P63/mmc,,,,11.852,,,,,BIN_000927,,,Binary_Pnictide,5.563,,Ti3As4,Ti:As = 3:4,6.638,,,
Systematic_Generation,,,VN,,Pm-3m,,,,11.898,,,,,BIN_000928,,,Binary_Pnictide,6.414,,VN,V:N = 1:1,6.727,,,
Systematic_Generation,,,V3N,,Pm-3m,,,,10.158,,,,,BIN_000929,,,Binary_Pnictide,3.215,,V3N,V:N = 3:1,3.271,,,
Systematic_Generation,,,VN2,,Pm-3m,,,,8.397,,,,,BIN_000930,,,Binary_Pnictide,4.144,,VN2,V:N = 1:2,3.801,,,
Systematic_Generation,,,V3N4,,Fm-3m,,,,9.222,,,,,BIN_000931,,,Binary_Pnictide,6.648,,V3N4,V:N = 3:4,6.916,,,
Systematic_Generation,,,VP,,Pm-3m,,,,5.027,,,,,BIN_000932,,,Binary_Pnictide,3.185,,VP,V:P = 1:1,4.024,,,
Systematic_Generation,,,V3P,,P63/mmc,,,,9.685,,,,,BIN_000933,,,Binary_Pnictide,6.812,,V3P,V:P = 3:1,5.55,,,
Systematic_Generation,,,VP2,,Pm-3m,,,,7.009,,,,,BIN_000934,,,Binary_Pnictide,5.718,,VP2,V:P = 1:2,5.434,,,
Systematic_Generation,,,V3P4,,Fm-3m,,,,8.719,,,,,BIN_000935,,,Binary_Pnictide,3.622,,V3P4,V:P = 3:4,6.275,,,
Systematic_Generation,,,VAs,,P63/mmc,,,,9.149,,,,,BIN_000936,,,Binary_Pnictide,3.589,,VAs,V:As = 1:1,3.916,,,
Systematic_Generation,,,V3As,,Fm-3m,,,,4.234,,,,,BIN_000937,,,Binary_Pnictide,6.121,,V3As,V:As = 3:1,4.225,,,
Systematic_Generation,,,VAs2,,Pm-3m,,,,10.671,,,,,BIN_000938,,,Binary_Pnictide,5.287,,VAs2,V:As = 1:2,5.133,,,
Systematic_Generation,,,V3As4,,Fm-3m,,,,5.29,,,,,BIN_000939,,,Binary_Pnictide,3.608,,V3As4,V:As = 3:4,5.907,,,
Systematic_Generation,,,CrN,,Fm-3m,,,,9.722,,,,,BIN_000940,,,Binary_Pnictide,3.455,,CrN,Cr:N = 1:1,6.064,,,
Systematic_Generation,,,Cr3N,,Pm-3m,,,,4.598,,,,,BIN_000941,,,Binary_Pnictide,6.381,,Cr3N,Cr:N = 3:1,4.645,,,
Systematic_Generation,,,CrN2,,Fm-3m,,,,5.984,,,,,BIN_000942,,,Binary_Pnictide,5.212,,CrN2,Cr:N = 1:2,4.533,,,
Systematic_Generation,,,Cr3N4,,P63/mmc,,,,4.163,,,,,BIN_000943,,,Binary_Pnictide,6.932,,Cr3N4,Cr:N = 3:4,3.285,,,
Systematic_Generation,,,CrP,,Fm-3m,,,,8.036,,,,,BIN_000944,,,Binary_Pnictide,5.766,,CrP,Cr:P = 1:1,6.362,,,
Systematic_Generation,,,Cr3P,,Fm-3m,,,,7.656,,,,,BIN_000945,,,Binary_Pnictide,3.693,,Cr3P,Cr:P = 3:1,5.99,,,
Systematic_Generation,,,CrP2,,Pm-3m,,,,7.748,,,,,BIN_000946,,,Binary_Pnictide,6.127,,CrP2,Cr:P = 1:2,6.135,,,
Systematic_Generation,,,Cr3P4,,Fm-3m,,,,10.06,,,,,BIN_000947,,,Binary_Pnictide,3.555,,Cr3P4,Cr:P = 3:4,5.87,,,
Systematic_Generation,,,CrAs,,Fm-3m,,,,7.574,,,,,BIN_000948,,,Binary_Pnictide,6.336,,CrAs,Cr:As = 1:1,5.305,,,
Systematic_Generation,,,Cr3As,,Pm-3m,,,,5.287,,,,,BIN_000949,,,Binary_Pnictide,5.326,,Cr3As,Cr:As = 3:1,5.219,,,
Systematic_Generation,,,CrAs2,,Fm-3m,,,,8.444,,,,,BIN_000950,,,Binary_Pnictide,5.202,,CrAs2,Cr:As = 1:2,4.249,,,
Systematic_Generation,,,Cr3As4,,Fm-3m,,,,9.51,,,,,BIN_000951,,,Binary_Pnictide,6.403,,Cr3As4,Cr:As = 3:4,5.656,,,
Systematic_Generation,,,MnN,,Fm-3m,,,,8.519,,,,,BIN_000952,,,Binary_Pnictide,4.053,,MnN,Mn:N = 1:1,3.26,,,
Systematic_Generation,,,Mn3N,,Fm-3m,,,,4.081,,,,,BIN_000953,,,Binary_Pnictide,5.557,,Mn3N,Mn:N = 3:1,4.261,,,
Systematic_Generation,,,MnN2,,P63/mmc,,,,10.093,,,,,BIN_000954,,,Binary_Pnictide,3.881,,MnN2,Mn:N = 1:2,5.166,,,
Systematic_Generation,,,Mn3N4,,Fm-3m,,,,6.476,,,,,BIN_000955,,,Binary_Pnictide,5.766,,Mn3N4,Mn:N = 3:4,5.242,,,
Systematic_Generation,,,MnP,,Pm-3m,,,,10.145,,,,,BIN_000956,,,Binary_Pnictide,5.686,,MnP,Mn:P = 1:1,6.788,,,
Systematic_Generation,,,Mn3P,,Fm-3m,,,,9.601,,,,,BIN_000957,,,Binary_Pnictide,4.461,,Mn3P,Mn:P = 3:1,4.36,,,
Systematic_Generation,,,MnP2,,Pm-3m,,,,9.281,,,,,BIN_000958,,,Binary_Pnictide,5.367,,MnP2,Mn:P = 1:2,5.166,,,
Systematic_Generation,,,Mn3P4,,Fm-3m,,,,7.782,,,,,BIN_000959,,,Binary_Pnictide,5.712,,Mn3P4,Mn:P = 3:4,3.939,,,
Systematic_Generation,,,MnAs,,Pm-3m,,,,8.754,,,,,BIN_000960,,,Binary_Pnictide,6.243,,MnAs,Mn:As = 1:1,3.1,,,
Systematic_Generation,,,Mn3As,,Pm-3m,,,,10.88,,,,,BIN_000961,,,Binary_Pnictide,4.463,,Mn3As,Mn:As = 3:1,5.068,,,
Systematic_Generation,,,MnAs2,,Pm-3m,,,,9.872,,,,,BIN_000962,,,Binary_Pnictide,4.407,,MnAs2,Mn:As = 1:2,5.24,,,
Systematic_Generation,,,Mn3As4,,Fm-3m,,,,10.182,,,,,BIN_000963,,,Binary_Pnictide,6.056,,Mn3As4,Mn:As = 3:4,6.158,,,
Systematic_Generation,,,FeN,,P63/mmc,,,,11.24,,,,,BIN_000964,,,Binary_Pnictide,3.745,,FeN,Fe:N = 1:1,3.655,,,
Systematic_Generation,,,Fe3N,,Pm-3m,,,,10.644,,,,,BIN_000965,,,Binary_Pnictide,3.487,,Fe3N,Fe:N = 3:1,5.841,,,
Systematic_Generation,,,FeN2,,Pm-3m,,,,6.41,,,,,BIN_000966,,,Binary_Pnictide,4.012,,FeN2,Fe:N = 1:2,6.267,,,
Systematic_Generation,,,Fe3N4,,Pm-3m,,,,10.445,,,,,BIN_000967,,,Binary_Pnictide,6.519,,Fe3N4,Fe:N = 3:4,6.753,,,
Systematic_Generation,,,FeP,,Pm-3m,,,,8.26,,,,,BIN_000968,,,Binary_Pnictide,6.007,,FeP,Fe:P = 1:1,3.282,,,
Systematic_Generation,,,Fe3P,,Fm-3m,,,,10.852,,,,,BIN_000969,,,Binary_Pnictide,6.001,,Fe3P,Fe:P = 3:1,6.331,,,
Systematic_Generation,,,FeP2,,P63/mmc,,,,11.4,,,,,BIN_000970,,,Binary_Pnictide,3.634,,FeP2,Fe:P = 1:2,3.525,,,
Systematic_Generation,,,Fe3P4,,Fm-3m,,,,9.963,,,,,BIN_000971,,,Binary_Pnictide,4.479,,Fe3P4,Fe:P = 3:4,3.999,,,
Systematic_Generation,,,FeAs,,Pm-3m,,,,7.992,,,,,BIN_000972,,,Binary_Pnictide,5.449,,FeAs,Fe:As = 1:1,3.376,,,
Systematic_Generation,,,Fe3As,,Fm-3m,,,,11.046,,,,,BIN_000973,,,Binary_Pnictide,4.408,,Fe3As,Fe:As = 3:1,6.996,,,
Systematic_Generation,,,FeAs2,,Fm-3m,,,,7.623,,,,,BIN_000974,,,Binary_Pnictide,5.6,,FeAs2,Fe:As = 1:2,4.717,,,
Systematic_Generation,,,Fe3As4,,P63/mmc,,,,9.601,,,,,BIN_000975,,,Binary_Pnictide,4.251,,Fe3As4,Fe:As = 3:4,6.254,,,
Systematic_Generation,,,CoN,,Pm-3m,,,,5.246,,,,,BIN_000976,,,Binary_Pnictide,5.679,,CoN,Co:N = 1:1,3.602,,,
Systematic_Generation,,,Co3N,,Fm-3m,,,,7.651,,,,,BIN_000977,,,Binary_Pnictide,4.867,,Co3N,Co:N = 3:1,3.124,,,
Systematic_Generation,,,CoN2,,Pm-3m,,,,5.148,,,,,BIN_000978,,,Binary_Pnictide,6.973,,CoN2,Co:N = 1:2,3.21,,,
Systematic_Generation,,,Co3N4,,P63/mmc,,,,7.599,,,,,BIN_000979,,,Binary_Pnictide,6.272,,Co3N4,Co:N = 3:4,4.941,,,
Systematic_Generation,,,CoP,,P63/mmc,,,,4.61,,,,,BIN_000980,,,Binary_Pnictide,3.754,,CoP,Co:P = 1:1,4.149,,,
Systematic_Generation,,,Co3P,,P63/mmc,,,,10.921,,,,,BIN_000981,,,Binary_Pnictide,3.465,,Co3P,Co:P = 3:1,3.631,,,
Systematic_Generation,,,CoP2,,Pm-3m,,,,8.517,,,,,BIN_000982,,,Binary_Pnictide,4.106,,CoP2,Co:P = 1:2,3.688,,,
Systematic_Generation,,,Co3P4,,P63/mmc,,,,4.736,,,,,BIN_000983,,,Binary_Pnictide,3.638,,Co3P4,Co:P = 3:4,6.609,,,
Systematic_Generation,,,CoAs,,Pm-3m,,,,9.866,,,,,BIN_000984,,,Binary_Pnictide,5.057,,CoAs,Co:As = 1:1,3.352,,,
Systematic_Generation,,,Co3As,,P63/mmc,,,,7.219,,,,,BIN_000985,,,Binary_Pnictide,6.306,,Co3As,Co:As = 3:1,5.499,,,
Systematic_Generation,,,CoAs2,,P63/mmc,,,,6.851,,,,,BIN_000986,,,Binary_Pnictide,3.431,,CoAs2,Co:As = 1:2,6.161,,,
Systematic_Generation,,,Co3As4,,Fm-3m,,,,5.043,,,,,BIN_000987,,,Binary_Pnictide,3.926,,Co3As4,Co:As = 3:4,5.947,,,
Systematic_Generation,,,NiN,,Pm-3m,,,,11.291,,,,,BIN_000988,,,Binary_Pnictide,6.931,,NiN,Ni:N = 1:1,4.215,,,
Systematic_Generation,,,Ni3N,,Pm-3m,,,,7.464,,,,,BIN_000989,,,Binary_Pnictide,6.936,,Ni3N,Ni:N = 3:1,3.423,,,
Systematic_Generation,,,NiN2,,Pm-3m,,,,9.106,,,,,BIN_000990,,,Binary_Pnictide,4.022,,NiN2,Ni:N = 1:2,5.64,,,
Systematic_Generation,,,Ni3N4,,P63/mmc,,,,11.053,,,,,BIN_000991,,,Binary_Pnictide,6.162,,Ni3N4,Ni:N = 3:4,4.112,,,
Systematic_Generation,,,NiP,,Fm-3m,,,,9.601,,,,,BIN_000992,,,Binary_Pnictide,4.019,,NiP,Ni:P = 1:1,4.163,,,
Systematic_Generation,,,Ni3P,,P63/mmc,,,,9.454,,,,,BIN_000993,,,Binary_Pnictide,4.107,,Ni3P,Ni:P = 3:1,4.248,,,
Systematic_Generation,,,NiP2,,Fm-3m,,,,6.69,,,,,BIN_000994,,,Binary_Pnictide,3.064,,NiP2,Ni:P = 1:2,3.974,,,
Systematic_Generation,,,Ni3P4,,Fm-3m,,,,9.827,,,,,BIN_000995,,,Binary_Pnictide,3.757,,Ni3P4,Ni:P = 3:4,3.562,,,
Systematic_Generation,,,NiAs,,Fm-3m,,,,7.644,,,,,BIN_000996,,,Binary_Pnictide,6.399,,NiAs,Ni:As = 1:1,6.219,,,
Systematic_Generation,,,Ni3As,,P63/mmc,,,,9.28,,,,,BIN_000997,,,Binary_Pnictide,6.234,,Ni3As,Ni:As = 3:1,4.336,,,
Systematic_Generation,,,NiAs2,,Fm-3m,,,,6.243,,,,,BIN_000998,,,Binary_Pnictide,4.716,,NiAs2,Ni:As = 1:2,3.239,,,
Systematic_Generation,,,Ni3As4,,Fm-3m,,,,10.268,,,,,BIN_000999,,,Binary_Pnictide,6.053,,Ni3As4,Ni:As = 3:4,3.35,,,
Systematic_Generation,,,CuN,,P63/mmc,,,,4.975,,,,,BIN_001000,,,Binary_Pnictide,5.991,,CuN,Cu:N = 1:1,6.043,,,
Systematic_Generation,,,Cu3N,,P63/mmc,,,,11.757,,,,,BIN_001001,,,Binary_Pnictide,3.027,,Cu3N,Cu:N = 3:1,3.014,,,
Systematic_Generation,,,CuN2,,Pm-3m,,,,6.39,,,,,BIN_001002,,,Binary_Pnictide,4.725,,CuN2,Cu:N = 1:2,6.72,,,
Systematic_Generation,,,Cu3N4,,P63/mmc,,,,6.502,,,,,BIN_001003,,,Binary_Pnictide,6.401,,Cu3N4,Cu:N = 3:4,5.449,,,
Systematic_Generation,,,CuP,,P63/mmc,,,,11.588,,,,,BIN_001004,,,Binary_Pnictide,4.058,,CuP,Cu:P = 1:1,5.003,,,
Systematic_Generation,,,Cu3P,,Pm-3m,,,,5.657,,,,,BIN_001005,,,Binary_Pnictide,3.34,,Cu3P,Cu:P = 3:1,6.752,,,
Systematic_Generation,,,CuP2,,Fm-3m,,,,4.556,,,,,BIN_001006,,,Binary_Pnictide,3.932,,CuP2,Cu:P = 1:2,4.141,,,
Systematic_Generation,,,Cu3P4,,Fm-3m,,,,7.811,,,,,BIN_001007,,,Binary_Pnictide,5.102,,Cu3P4,Cu:P = 3:4,3.803,,,
Systematic_Generation,,,CuAs,,P63/mmc,,,,8.6,,,,,BIN_001008,,,Binary_Pnictide,5.751,,CuAs,Cu:As = 1:1,3.057,,,
Systematic_Generation,,,Cu3As,,Fm-3m,,,,7.161,,,,,BIN_001009,,,Binary_Pnictide,6.205,,Cu3As,Cu:As = 3:1,5.674,,,
Systematic_Generation,,,CuAs2,,Pm-3m,,,,6.184,,,,,BIN_001010,,,Binary_Pnictide,6.551,,CuAs2,Cu:As = 1:2,6.747,,,
Systematic_Generation,,,Cu3As4,,Pm-3m,,,,9.287,,,,,BIN_001011,,,Binary_Pnictide,3.288,,Cu3As4,Cu:As = 3:4,6.605,,,
Systematic_Generation,,,ZnN,,P63/mmc,,,,7.087,,,,,BIN_001012,,,Binary_Pnictide,5.721,,ZnN,Zn:N = 1:1,5.605,,,
Systematic_Generation,,,Zn3N,,P63/mmc,,,,4.449,,,,,BIN_001013,,,Binary_Pnictide,5.71,,Zn3N,Zn:N = 3:1,3.985,,,
Systematic_Generation,,,ZnN2,,P63/mmc,,,,6.865,,,,,BIN_001014,,,Binary_Pnictide,4.028,,ZnN2,Zn:N = 1:2,3.189,,,
Systematic_Generation,,,Zn3N4,,P63/mmc,,,,8.49,,,,,BIN_001015,,,Binary_Pnictide,6.93,,Zn3N4,Zn:N = 3:4,6.963,,,
Systematic_Generation,,,ZnP,,P63/mmc,,,,11.679,,,,,BIN_001016,,,Binary_Pnictide,4.439,,ZnP,Zn:P = 1:1,4.737,,,
Systematic_Generation,,,Zn3P,,Fm-3m,,,,5.226,,,,,BIN_001017,,,Binary_Pnictide,6.799,,Zn3P,Zn:P = 3:1,3.748,,,
Systematic_Generation,,,ZnP2,,Fm-3m,,,,9.804,,,,,BIN_001018,,,Binary_Pnictide,3.311,,ZnP2,Zn:P = 1:2,3.382,,,
Systematic_Generation,,,Zn3P4,,Fm-3m,,,,6.718,,,,,BIN_001019,,,Binary_Pnictide,6.043,,Zn3P4,Zn:P = 3:4,5.508,,,
Systematic_Generation,,,ZnAs,,Fm-3m,,,,10.18,,,,,BIN_001020,,,Binary_Pnictide,6.387,,ZnAs,Zn:As = 1:1,5.57,,,
Systematic_Generation,,,Zn3As,,P63/mmc,,,,6.477,,,,,BIN_001021,,,Binary_Pnictide,4.685,,Zn3As,Zn:As = 3:1,4.099,,,
Systematic_Generation,,,ZnAs2,,Fm-3m,,,,6.492,,,,,BIN_001022,,,Binary_Pnictide,3.121,,ZnAs2,Zn:As = 1:2,6.241,,,
Systematic_Generation,,,Zn3As4,,Pm-3m,,,,5.653,,,,,BIN_001023,,,Binary_Pnictide,4.219,,Zn3As4,Zn:As = 3:4,6.122,,,
Systematic_Generation,,,YN,,Pm-3m,,,,7.74,,,,,BIN_001024,,,Binary_Pnictide,3.815,,YN,Y:N = 1:1,5.729,,,
Systematic_Generation,,,Y3N,,Pm-3m,,,,7.339,,,,,BIN_001025,,,Binary_Pnictide,5.221,,Y3N,Y:N = 3:1,3.105,,,
Systematic_Generation,,,YN2,,Pm-3m,,,,6.009,,,,,BIN_001026,,,Binary_Pnictide,5.19,,YN2,Y:N = 1:2,6.212,,,
Systematic_Generation,,,Y3N4,,Pm-3m,,,,8.774,,,,,BIN_001027,,,Binary_Pnictide,6.553,,Y3N4,Y:N = 3:4,5.545,,,
Systematic_Generation,,,YP,,Fm-3m,,,,7.843,,,,,BIN_001028,,,Binary_Pnictide,4.302,,YP,Y:P = 1:1,5.822,,,
Systematic_Generation,,,Y3P,,Pm-3m,,,,7.048,,,,,BIN_001029,,,Binary_Pnictide,5.575,,Y3P,Y:P = 3:1,3.433,,,
Systematic_Generation,,,YP2,,Fm-3m,,,,7.492,,,,,BIN_001030,,,Binary_Pnictide,6.603,,YP2,Y:P = 1:2,4.929,,,
Systematic_Generation,,,Y3P4,,P63/mmc,,,,5.897,,,,,BIN_001031,,,Binary_Pnictide,4.23,,Y3P4,Y:P = 3:4,4.902,,,
Systematic_Generation,,,YAs,,P63/mmc,,,,8.746,,,,,BIN_001032,,,Binary_Pnictide,5.172,,YAs,Y:As = 1:1,3.7,,,
Systematic_Generation,,,Y3As,,Fm-3m,,,,4.852,,,,,BIN_001033,,,Binary_Pnictide,5.879,,Y3As,Y:As = 3:1,6.552,,,
Systematic_Generation,,,YAs2,,P63/mmc,,,,11.646,,,,,BIN_001034,,,Binary_Pnictide,4.877,,YAs2,Y:As = 1:2,5.54,,,
Systematic_Generation,,,Y3As4,,P63/mmc,,,,5.242,,,,,BIN_001035,,,Binary_Pnictide,5.023,,Y3As4,Y:As = 3:4,6.912,,,
Systematic_Generation,,,ZrN,,Fm-3m,,,,4.509,,,,,BIN_001036,,,Binary_Pnictide,4.736,,ZrN,Zr:N = 1:1,4.319,,,
Systematic_Generation,,,Zr3N,,Pm-3m,,,,5.394,,,,,BIN_001037,,,Binary_Pnictide,3.569,,Zr3N,Zr:N = 3:1,3.318,,,
Systematic_Generation,,,ZrN2,,Fm-3m,,,,6.564,,,,,BIN_001038,,,Binary_Pnictide,5.185,,ZrN2,Zr:N = 1:2,4.843,,,
Systematic_Generation,,,Zr3N4,,P63/mmc,,,,7.411,,,,,BIN_001039,,,Binary_Pnictide,6.868,,Zr3N4,Zr:N = 3:4,6.51,,,
Systematic_Generation,,,ZrP,,Pm-3m,,,,9.509,,,,,BIN_001040,,,Binary_Pnictide,3.429,,ZrP,Zr:P = 1:1,4.585,,,
Systematic_Generation,,,Zr3P,,P63/mmc,,,,8.485,,,,,BIN_001041,,,Binary_Pnictide,3.374,,Zr3P,Zr:P = 3:1,6.753,,,
Systematic_Generation,,,ZrP2,,Fm-3m,,,,10.573,,,,,BIN_001042,,,Binary_Pnictide,3.092,,ZrP2,Zr:P = 1:2,4.663,,,
Systematic_Generation,,,Zr3P4,,P63/mmc,,,,8.547,,,,,BIN_001043,,,Binary_Pnictide,3.783,,Zr3P4,Zr:P = 3:4,3.792,,,
Systematic_Generation,,,ZrAs,,Pm-3m,,,,8.66,,,,,BIN_001044,,,Binary_Pnictide,3.442,,ZrAs,Zr:As = 1:1,6.04,,,
Systematic_Generation,,,Zr3As,,P63/mmc,,,,6.416,,,,,BIN_001045,,,Binary_Pnictide,6.379,,Zr3As,Zr:As = 3:1,6.924,,,
Systematic_Generation,,,ZrAs2,,Fm-3m,,,,6.34,,,,,BIN_001046,,,Binary_Pnictide,3.866,,ZrAs2,Zr:As = 1:2,6.158,,,
Systematic_Generation,,,Zr3As4,,Fm-3m,,,,9.979,,,,,BIN_001047,,,Binary_Pnictide,3.097,,Zr3As4,Zr:As = 3:4,4.52,,,
Systematic_Generation,,,NbN,,P63/mmc,,,,11.892,,,,,BIN_001048,,,Binary_Pnictide,6.045,,NbN,Nb:N = 1:1,4.148,,,
Systematic_Generation,,,Nb3N,,Fm-3m,,,,5.735,,,,,BIN_001049,,,Binary_Pnictide,6.729,,Nb3N,Nb:N = 3:1,5.876,,,
Systematic_Generation,,,NbN2,,P63/mmc,,,,11.322,,,,,BIN_001050,,,Binary_Pnictide,4.104,,NbN2,Nb:N = 1:2,4.058,,,
Systematic_Generation,,,Nb3N4,,Pm-3m,,,,8.792,,,,,BIN_001051,,,Binary_Pnictide,3.669,,Nb3N4,Nb:N = 3:4,6.946,,,
Systematic_Generation,,,NbP,,P63/mmc,,,,10.149,,,,,BIN_001052,,,Binary_Pnictide,3.228,,NbP,Nb:P = 1:1,3.59,,,
Systematic_Generation,,,Nb3P,,Fm-3m,,,,6.037,,,,,BIN_001053,,,Binary_Pnictide,3.447,,Nb3P,Nb:P = 3:1,5.43,,,
Systematic_Generation,,,NbP2,,Pm-3m,,,,11.433,,,,,BIN_001054,,,Binary_Pnictide,3.971,,NbP2,Nb:P = 1:2,6.965,,,
Systematic_Generation,,,Nb3P4,,P63/mmc,,,,6.562,,,,,BIN_001055,,,Binary_Pnictide,6.136,,Nb3P4,Nb:P = 3:4,6.403,,,
Systematic_Generation,,,NbAs,,P63/mmc,,,,11.391,,,,,BIN_001056,,,Binary_Pnictide,6.031,,NbAs,Nb:As = 1:1,4.709,,,
Systematic_Generation,,,Nb3As,,P63/mmc,,,,9.931,,,,,BIN_001057,,,Binary_Pnictide,6.086,,Nb3As,Nb:As = 3:1,6.394,,,