source,n_elements,doping_concentration,name,termination,space_group,doping_level,volume_fraction,weight_percent,lattice_c,temperature,reinforcement,matrix,layers,material_id,molecular_weight,deposition_method,type,lattice_b,pdi,formula,composition,lattice_a,thickness_nm,dopant,substrate
Systematic_Generation,,,Ni30Fe50Mo20,,Im-3m,,,,,,,,,ALLOY_002827,,,Ternary_Alloy,,,Ni_0.30Fe_0.50Mo_0.20,"Ni:30%, Fe:50%, Mo:20%",3.283,,,
Systematic_Generation,,,Ni40Fe10Mo50,,Im-3m,,,,,,,,,ALLOY_002828,,,Ternary_Alloy,,,Ni_0.40Fe_0.10Mo_0.50,"Ni:40%, Fe:10%, Mo:50%",3.132,,,
Systematic_Generation,,,Ni40Fe20Mo40,,Im-3m,,,,,,,,,ALLOY_002829,,,Ternary_Alloy,,,Ni_0.40Fe_0.20Mo_0.40,"Ni:40%, Fe:20%, Mo:40%",3.763,,,
Systematic_Generation,,,Ni40Fe30Mo30,,P63/mmc,,,,,,,,,ALLOY_002830,,,Ternary_Alloy,,,Ni_0.40Fe_0.30Mo_0.30,"Ni:40%, Fe:30%, Mo:30%",4.174,,,
Systematic_Generation,,,Ni40Fe40Mo20,,P63/mmc,,,,,,,,,ALLOY_002831,,,Ternary_Alloy,,,Ni_0.40Fe_0.40Mo_0.20,"Ni:40%, Fe:40%, Mo:20%",3.049,,,
Systematic_Generation,,,Ni50Fe10Mo40,,Fm-3m,,,,,,,,,ALLOY_002832,,,Ternary_Alloy,,,Ni_0.50Fe_0.10Mo_0.40,"Ni:50%, Fe:10%, Mo:40%",3.028,,,
Systematic_Generation,,,Ni50Fe20Mo30,,Fm-3m,,,,,,,,,ALLOY_002833,,,Ternary_Alloy,,,Ni_0.50Fe_0.20Mo_0.30,"Ni:50%, Fe:20%, Mo:30%",3.977,,,
Systematic_Generation,,,Ni50Fe30Mo20,,Im-3m,,,,,,,,,ALLOY_002834,,,Ternary_Alloy,,,Ni_0.50Fe_0.30Mo_0.20,"Ni:50%, Fe:30%, Mo:20%",4.123,,,
Systematic_Generation,,,Ni60Fe10Mo30,,Fm-3m,,,,,,,,,ALLOY_002835,,,Ternary_Alloy,,,Ni_0.60Fe_0.10Mo_0.30,"Ni:60%, Fe:10%, Mo:30%",3.866,,,
Systematic_Generation,,,Ni60Fe20Mo20,,P63/mmc,,,,,,,,,ALLOY_002836,,,Ternary_Alloy,,,Ni_0.60Fe_0.20Mo_0.20,"Ni:60%, Fe:20%, Mo:20%",2.894,,,
Systematic_Generation,,,Ni70Fe10Mo20,,Fm-3m,,,,,,,,,ALLOY_002837,,,Ternary_Alloy,,,Ni_0.70Fe_0.10Mo_0.20,"Ni:70%, Fe:10%, Mo:20%",3.153,,,
Systematic_Generation,,,Cu10Ni10Zn80,,Fm-3m,,,,,,,,,ALLOY_002838,,,Ternary_Alloy,,,Cu_0.10Ni_0.10Zn_0.80,"Cu:10%, Ni:10%, Zn:80%",3.501,,,
Systematic_Generation,,,Cu10Ni20Zn70,,Fm-3m,,,,,,,,,ALLOY_002839,,,Ternary_Alloy,,,Cu_0.10Ni_0.20Zn_0.70,"Cu:10%, Ni:20%, Zn:70%",3.767,,,
Systematic_Generation,,,Cu10Ni30Zn60,,Fm-3m,,,,,,,,,ALLOY_002840,,,Ternary_Alloy,,,Cu_0.10Ni_0.30Zn_0.60,"Cu:10%, Ni:30%, Zn:60%",3.193,,,
Systematic_Generation,,,Cu10Ni40Zn50,,Fm-3m,,,,,,,,,ALLOY_002841,,,Ternary_Alloy,,,Cu_0.10Ni_0.40Zn_0.50,"Cu:10%, Ni:40%, Zn:50%",3.21,,,
Systematic_Generation,,,Cu10Ni50Zn40,,Fm-3m,,,,,,,,,ALLOY_002842,,,Ternary_Alloy,,,Cu_0.10Ni_0.50Zn_0.40,"Cu:10%, Ni:50%, Zn:40%",3.642,,,
Systematic_Generation,,,Cu10Ni60Zn30,,P63/mmc,,,,,,,,,ALLOY_002843,,,Ternary_Alloy,,,Cu_0.10Ni_0.60Zn_0.30,"Cu:10%, Ni:60%, Zn:30%",3.245,,,
Systematic_Generation,,,Cu10Ni70Zn20,,Im-3m,,,,,,,,,ALLOY_002844,,,Ternary_Alloy,,,Cu_0.10Ni_0.70Zn_0.20,"Cu:10%, Ni:70%, Zn:20%",2.815,,,
Systematic_Generation,,,Cu20Ni10Zn70,,P63/mmc,,,,,,,,,ALLOY_002845,,,Ternary_Alloy,,,Cu_0.20Ni_0.10Zn_0.70,"Cu:20%, Ni:10%, Zn:70%",3.721,,,
Systematic_Generation,,,Cu20Ni20Zn60,,Fm-3m,,,,,,,,,ALLOY_002846,,,Ternary_Alloy,,,Cu_0.20Ni_0.20Zn_0.60,"Cu:20%, Ni:20%, Zn:60%",3.137,,,
Systematic_Generation,,,Cu20Ni30Zn50,,P63/mmc,,,,,,,,,ALLOY_002847,,,Ternary_Alloy,,,Cu_0.20Ni_0.30Zn_0.50,"Cu:20%, Ni:30%, Zn:50%",3.402,,,
Systematic_Generation,,,Cu20Ni40Zn40,,P63/mmc,,,,,,,,,ALLOY_002848,,,Ternary_Alloy,,,Cu_0.20Ni_0.40Zn_0.40,"Cu:20%, Ni:40%, Zn:40%",3.877,,,
Systematic_Generation,,,Cu20Ni50Zn30,,Fm-3m,,,,,,,,,ALLOY_002849,,,Ternary_Alloy,,,Cu_0.20Ni_0.50Zn_0.30,"Cu:20%, Ni:50%, Zn:30%",3.377,,,
Systematic_Generation,,,Cu20Ni60Zn20,,Fm-3m,,,,,,,,,ALLOY_002850,,,Ternary_Alloy,,,Cu_0.20Ni_0.60Zn_0.20,"Cu:20%, Ni:60%, Zn:20%",4.114,,,
Systematic_Generation,,,Cu30Ni10Zn60,,Im-3m,,,,,,,,,ALLOY_002851,,,Ternary_Alloy,,,Cu_0.30Ni_0.10Zn_0.60,"Cu:30%, Ni:10%, Zn:60%",4.127,,,
Systematic_Generation,,,Cu30Ni20Zn50,,P63/mmc,,,,,,,,,ALLOY_002852,,,Ternary_Alloy,,,Cu_0.30Ni_0.20Zn_0.50,"Cu:30%, Ni:20%, Zn:50%",2.929,,,
Systematic_Generation,,,Cu30Ni30Zn40,,P63/mmc,,,,,,,,,ALLOY_002853,,,Ternary_Alloy,,,Cu_0.30Ni_0.30Zn_0.40,"Cu:30%, Ni:30%, Zn:40%",2.817,,,
Systematic_Generation,,,Cu30Ni40Zn30,,Im-3m,,,,,,,,,ALLOY_002854,,,Ternary_Alloy,,,Cu_0.30Ni_0.40Zn_0.30,"Cu:30%, Ni:40%, Zn:30%",3.735,,,
Systematic_Generation,,,Cu30Ni50Zn20,,Fm-3m,,,,,,,,,ALLOY_002855,,,Ternary_Alloy,,,Cu_0.30Ni_0.50Zn_0.20,"Cu:30%, Ni:50%, Zn:20%",3.057,,,
Systematic_Generation,,,Cu40Ni10Zn50,,Fm-3m,,,,,,,,,ALLOY_002856,,,Ternary_Alloy,,,Cu_0.40Ni_0.10Zn_0.50,"Cu:40%, Ni:10%, Zn:50%",3.462,,,
Systematic_Generation,,,Cu40Ni20Zn40,,P63/mmc,,,,,,,,,ALLOY_002857,,,Ternary_Alloy,,,Cu_0.40Ni_0.20Zn_0.40,"Cu:40%, Ni:20%, Zn:40%",3.82,,,
Systematic_Generation,,,Cu40Ni30Zn30,,Fm-3m,,,,,,,,,ALLOY_002858,,,Ternary_Alloy,,,Cu_0.40Ni_0.30Zn_0.30,"Cu:40%, Ni:30%, Zn:30%",4.019,,,
Systematic_Generation,,,Cu40Ni40Zn20,,Im-3m,,,,,,,,,ALLOY_002859,,,Ternary_Alloy,,,Cu_0.40Ni_0.40Zn_0.20,"Cu:40%, Ni:40%, Zn:20%",3.129,,,
Systematic_Generation,,,Cu50Ni10Zn40,,P63/mmc,,,,,,,,,ALLOY_002860,,,Ternary_Alloy,,,Cu_0.50Ni_0.10Zn_0.40,"Cu:50%, Ni:10%, Zn:40%",3.939,,,
Systematic_Generation,,,Cu50Ni20Zn30,,Im-3m,,,,,,,,,ALLOY_002861,,,Ternary_Alloy,,,Cu_0.50Ni_0.20Zn_0.30,"Cu:50%, Ni:20%, Zn:30%",3.675,,,
Systematic_Generation,,,Cu50Ni30Zn20,,P63/mmc,,,,,,,,,ALLOY_002862,,,Ternary_Alloy,,,Cu_0.50Ni_0.30Zn_0.20,"Cu:50%, Ni:30%, Zn:20%",4.079,,,
Systematic_Generation,,,Cu60Ni10Zn30,,Fm-3m,,,,,,,,,ALLOY_002863,,,Ternary_Alloy,,,Cu_0.60Ni_0.10Zn_0.30,"Cu:60%, Ni:10%, Zn:30%",3.181,,,
Systematic_Generation,,,Cu60Ni20Zn20,,Im-3m,,,,,,,,,ALLOY_002864,,,Ternary_Alloy,,,Cu_0.60Ni_0.20Zn_0.20,"Cu:60%, Ni:20%, Zn:20%",2.827,,,
Systematic_Generation,,,Cu70Ni10Zn20,,Im-3m,,,,,,,,,ALLOY_002865,,,Ternary_Alloy,,,Cu_0.70Ni_0.10Zn_0.20,"Cu:70%, Ni:10%, Zn:20%",4.003,,,
Systematic_Generation,,,Al10Mg10Si80,,P63/mmc,,,,,,,,,ALLOY_002866,,,Ternary_Alloy,,,Al_0.10Mg_0.10Si_0.80,"Al:10%, Mg:10%, Si:80%",3.106,,,
Systematic_Generation,,,Al10Mg20Si70,,P63/mmc,,,,,,,,,ALLOY_002867,,,Ternary_Alloy,,,Al_0.10Mg_0.20Si_0.70,"Al:10%, Mg:20%, Si:70%",3.429,,,
Systematic_Generation,,,Al10Mg30Si60,,Fm-3m,,,,,,,,,ALLOY_002868,,,Ternary_Alloy,,,Al_0.10Mg_0.30Si_0.60,"Al:10%, Mg:30%, Si:60%",4.178,,,
Systematic_Generation,,,Al10Mg40Si50,,Fm-3m,,,,,,,,,ALLOY_002869,,,Ternary_Alloy,,,Al_0.10Mg_0.40Si_0.50,"Al:10%, Mg:40%, Si:50%",3.329,,,
Systematic_Generation,,,Al10Mg50Si40,,Im-3m,,,,,,,,,ALLOY_002870,,,Ternary_Alloy,,,Al_0.10Mg_0.50Si_0.40,"Al:10%, Mg:50%, Si:40%",3.9,,,
Systematic_Generation,,,Al10Mg60Si30,,P63/mmc,,,,,,,,,ALLOY_002871,,,Ternary_Alloy,,,Al_0.10Mg_0.60Si_0.30,"Al:10%, Mg:60%, Si:30%",3.805,,,
Systematic_Generation,,,Al10Mg70Si20,,Fm-3m,,,,,,,,,ALLOY_002872,,,Ternary_Alloy,,,Al_0.10Mg_0.70Si_0.20,"Al:10%, Mg:70%, Si:20%",2.903,,,
Systematic_Generation,,,Al20Mg10Si70,,P63/mmc,,,,,,,,,ALLOY_002873,,,Ternary_Alloy,,,Al_0.20Mg_0.10Si_0.70,"Al:20%, Mg:10%, Si:70%",3.879,,,
Systematic_Generation,,,Al20Mg20Si60,,Fm-3m,,,,,,,,,ALLOY_002874,,,Ternary_Alloy,,,Al_0.20Mg_0.20Si_0.60,"Al:20%, Mg:20%, Si:60%",3.521,,,
Systematic_Generation,,,Al20Mg30Si50,,P63/mmc,,,,,,,,,ALLOY_002875,,,Ternary_Alloy,,,Al_0.20Mg_0.30Si_0.50,"Al:20%, Mg:30%, Si:50%",3.145,,,
Systematic_Generation,,,Al20Mg40Si40,,P63/mmc,,,,,,,,,ALLOY_002876,,,Ternary_Alloy,,,Al_0.20Mg_0.40Si_0.40,"Al:20%, Mg:40%, Si:40%",3.561,,,
Systematic_Generation,,,Al20Mg50Si30,,Im-3m,,,,,,,,,ALLOY_002877,,,Ternary_Alloy,,,Al_0.20Mg_0.50Si_0.30,"Al:20%, Mg:50%, Si:30%",3.351,,,
Systematic_Generation,,,Al20Mg60Si20,,P63/mmc,,,,,,,,,ALLOY_002878,,,Ternary_Alloy,,,Al_0.20Mg_0.60Si_0.20,"Al:20%, Mg:60%, Si:20%",2.97,,,
Systematic_Generation,,,Al30Mg10Si60,,P63/mmc,,,,,,,,,ALLOY_002879,,,Ternary_Alloy,,,Al_0.30Mg_0.10Si_0.60,"Al:30%, Mg:10%, Si:60%",3.44,,,
Systematic_Generation,,,Al30Mg20Si50,,P63/mmc,,,,,,,,,ALLOY_002880,,,Ternary_Alloy,,,Al_0.30Mg_0.20Si_0.50,"Al:30%, Mg:20%, Si:50%",2.822,,,
Systematic_Generation,,,Al30Mg30Si40,,P63/mmc,,,,,,,,,ALLOY_002881,,,Ternary_Alloy,,,Al_0.30Mg_0.30Si_0.40,"Al:30%, Mg:30%, Si:40%",3.121,,,
Systematic_Generation,,,Al30Mg40Si30,,P63/mmc,,,,,,,,,ALLOY_002882,,,Ternary_Alloy,,,Al_0.30Mg_0.40Si_0.30,"Al:30%, Mg:40%, Si:30%",3.389,,,
Systematic_Generation,,,Al30Mg50Si20,,P63/mmc,,,,,,,,,ALLOY_002883,,,Ternary_Alloy,,,Al_0.30Mg_0.50Si_0.20,"Al:30%, Mg:50%, Si:20%",3.281,,,
Systematic_Generation,,,Al40Mg10Si50,,P63/mmc,,,,,,,,,ALLOY_002884,,,Ternary_Alloy,,,Al_0.40Mg_0.10Si_0.50,"Al:40%, Mg:10%, Si:50%",3.837,,,
Systematic_Generation,,,Al40Mg20Si40,,P63/mmc,,,,,,,,,ALLOY_002885,,,Ternary_Alloy,,,Al_0.40Mg_0.20Si_0.40,"Al:40%, Mg:20%, Si:40%",3.808,,,
Systematic_Generation,,,Al40Mg30Si30,,Fm-3m,,,,,,,,,ALLOY_002886,,,Ternary_Alloy,,,Al_0.40Mg_0.30Si_0.30,"Al:40%, Mg:30%, Si:30%",3.213,,,
Systematic_Generation,,,Al40Mg40Si20,,Im-3m,,,,,,,,,ALLOY_002887,,,Ternary_Alloy,,,Al_0.40Mg_0.40Si_0.20,"Al:40%, Mg:40%, Si:20%",3.424,,,
Systematic_Generation,,,Al50Mg10Si40,,P63/mmc,,,,,,,,,ALLOY_002888,,,Ternary_Alloy,,,Al_0.50Mg_0.10Si_0.40,"Al:50%, Mg:10%, Si:40%",3.099,,,
Systematic_Generation,,,Al50Mg20Si30,,Fm-3m,,,,,,,,,ALLOY_002889,,,Ternary_Alloy,,,Al_0.50Mg_0.20Si_0.30,"Al:50%, Mg:20%, Si:30%",3.679,,,
Systematic_Generation,,,Al50Mg30Si20,,Im-3m,,,,,,,,,ALLOY_002890,,,Ternary_Alloy,,,Al_0.50Mg_0.30Si_0.20,"Al:50%, Mg:30%, Si:20%",3.534,,,
Systematic_Generation,,,Al60Mg10Si30,,Im-3m,,,,,,,,,ALLOY_002891,,,Ternary_Alloy,,,Al_0.60Mg_0.10Si_0.30,"Al:60%, Mg:10%, Si:30%",3.81,,,
Systematic_Generation,,,Al60Mg20Si20,,Fm-3m,,,,,,,,,ALLOY_002892,,,Ternary_Alloy,,,Al_0.60Mg_0.20Si_0.20,"Al:60%, Mg:20%, Si:20%",3.775,,,
Systematic_Generation,,,Al70Mg10Si20,,P63/mmc,,,,,,,,,ALLOY_002893,,,Ternary_Alloy,,,Al_0.70Mg_0.10Si_0.20,"Al:70%, Mg:10%, Si:20%",3.504,,,
Systematic_Generation,,,Ti10Nb10Zr80,,Im-3m,,,,,,,,,ALLOY_002894,,,Ternary_Alloy,,,Ti_0.10Nb_0.10Zr_0.80,"Ti:10%, Nb:10%, Zr:80%",3.453,,,
Systematic_Generation,,,Ti10Nb20Zr70,,P63/mmc,,,,,,,,,ALLOY_002895,,,Ternary_Alloy,,,Ti_0.10Nb_0.20Zr_0.70,"Ti:10%, Nb:20%, Zr:70%",4.102,,,
Systematic_Generation,,,Ti10Nb30Zr60,,Im-3m,,,,,,,,,ALLOY_002896,,,Ternary_Alloy,,,Ti_0.10Nb_0.30Zr_0.60,"Ti:10%, Nb:30%, Zr:60%",3.343,,,
Systematic_Generation,,,Ti10Nb40Zr50,,Im-3m,,,,,,,,,ALLOY_002897,,,Ternary_Alloy,,,Ti_0.10Nb_0.40Zr_0.50,"Ti:10%, Nb:40%, Zr:50%",4.018,,,
Systematic_Generation,,,Ti10Nb50Zr40,,P63/mmc,,,,,,,,,ALLOY_002898,,,Ternary_Alloy,,,Ti_0.10Nb_0.50Zr_0.40,"Ti:10%, Nb:50%, Zr:40%",3.672,,,
Systematic_Generation,,,Ti10Nb60Zr30,,P63/mmc,,,,,,,,,ALLOY_002899,,,Ternary_Alloy,,,Ti_0.10Nb_0.60Zr_0.30,"Ti:10%, Nb:60%, Zr:30%",3.084,,,
Systematic_Generation,,,Ti10Nb70Zr20,,Fm-3m,,,,,,,,,ALLOY_002900,,,Ternary_Alloy,,,Ti_0.10Nb_0.70Zr_0.20,"Ti:10%, Nb:70%, Zr:20%",2.827,,,
Systematic_Generation,,,Ti20Nb10Zr70,,Fm-3m,,,,,,,,,ALLOY_002901,,,Ternary_Alloy,,,Ti_0.20Nb_0.10Zr_0.70,"Ti:20%, Nb:10%, Zr:70%",4.102,,,
Systematic_Generation,,,Ti20Nb20Zr60,,P63/mmc,,,,,,,,,ALLOY_002902,,,Ternary_Alloy,,,Ti_0.20Nb_0.20Zr_0.60,"Ti:20%, Nb:20%, Zr:60%",3.658,,,
Systematic_Generation,,,Ti20Nb30Zr50,,Fm-3m,,,,,,,,,ALLOY_002903,,,Ternary_Alloy,,,Ti_0.20Nb_0.30Zr_0.50,"Ti:20%, Nb:30%, Zr:50%",2.809,,,
Systematic_Generation,,,Ti20Nb40Zr40,,Fm-3m,,,,,,,,,ALLOY_002904,,,Ternary_Alloy,,,Ti_0.20Nb_0.40Zr_0.40,"Ti:20%, Nb:40%, Zr:40%",3.384,,,
Systematic_Generation,,,Ti20Nb50Zr30,,P63/mmc,,,,,,,,,ALLOY_002905,,,Ternary_Alloy,,,Ti_0.20Nb_0.50Zr_0.30,"Ti:20%, Nb:50%, Zr:30%",3.837,,,
Systematic_Generation,,,Ti20Nb60Zr20,,P63/mmc,,,,,,,,,ALLOY_002906,,,Ternary_Alloy,,,Ti_0.20Nb_0.60Zr_0.20,"Ti:20%, Nb:60%, Zr:20%",2.931,,,
Systematic_Generation,,,Ti30Nb10Zr60,,Im-3m,,,,,,,,,ALLOY_002907,,,Ternary_Alloy,,,Ti_0.30Nb_0.10Zr_0.60,"Ti:30%, Nb:10%, Zr:60%",3.82,,,
Systematic_Generation,,,Ti30Nb20Zr50,,P63/mmc,,,,,,,,,ALLOY_002908,,,Ternary_Alloy,,,Ti_0.30Nb_0.20Zr_0.50,"Ti:30%, Nb:20%, Zr:50%",3.269,,,
Systematic_Generation,,,Ti30Nb30Zr40,,P63/mmc,,,,,,,,,ALLOY_002909,,,Ternary_Alloy,,,Ti_0.30Nb_0.30Zr_0.40,"Ti:30%, Nb:30%, Zr:40%",3.421,,,
Systematic_Generation,,,Ti30Nb40Zr30,,P63/mmc,,,,,,,,,ALLOY_002910,,,Ternary_Alloy,,,Ti_0.30Nb_0.40Zr_0.30,"Ti:30%, Nb:40%, Zr:30%",3.529,,,
Systematic_Generation,,,Ti30Nb50Zr20,,P63/mmc,,,,,,,,,ALLOY_002911,,,Ternary_Alloy,,,Ti_0.30Nb_0.50Zr_0.20,"Ti:30%, Nb:50%, Zr:20%",3.618,,,
Systematic_Generation,,,Ti40Nb10Zr50,,Fm-3m,,,,,,,,,ALLOY_002912,,,Ternary_Alloy,,,Ti_0.40Nb_0.10Zr_0.50,"Ti:40%, Nb:10%, Zr:50%",3.099,,,
Systematic_Generation,,,Ti40Nb20Zr40,,Fm-3m,,,,,,,,,ALLOY_002913,,,Ternary_Alloy,,,Ti_0.40Nb_0.20Zr_0.40,"Ti:40%, Nb:20%, Zr:40%",2.996,,,
Systematic_Generation,,,Ti40Nb30Zr30,,Im-3m,,,,,,,,,ALLOY_002914,,,Ternary_Alloy,,,Ti_0.40Nb_0.30Zr_0.30,"Ti:40%, Nb:30%, Zr:30%",2.993,,,
Systematic_Generation,,,Ti40Nb40Zr20,,P63/mmc,,,,,,,,,ALLOY_002915,,,Ternary_Alloy,,,Ti_0.40Nb_0.40Zr_0.20,"Ti:40%, Nb:40%, Zr:20%",3.624,,,
Systematic_Generation,,,Ti50Nb10Zr40,,Im-3m,,,,,,,,,ALLOY_002916,,,Ternary_Alloy,,,Ti_0.50Nb_0.10Zr_0.40,"Ti:50%, Nb:10%, Zr:40%",3.522,,,
Systematic_Generation,,,Ti50Nb20Zr30,,Fm-3m,,,,,,,,,ALLOY_002917,,,Ternary_Alloy,,,Ti_0.50Nb_0.20Zr_0.30,"Ti:50%, Nb:20%, Zr:30%",3.501,,,
Systematic_Generation,,,Ti50Nb30Zr20,,Fm-3m,,,,,,,,,ALLOY_002918,,,Ternary_Alloy,,,Ti_0.50Nb_0.30Zr_0.20,"Ti:50%, Nb:30%, Zr:20%",3.816,,,
Systematic_Generation,,,Ti60Nb10Zr30,,Im-3m,,,,,,,,,ALLOY_002919,,,Ternary_Alloy,,,Ti_0.60Nb_0.10Zr_0.30,"Ti:60%, Nb:10%, Zr:30%",2.828,,,
Systematic_Generation,,,Ti60Nb20Zr20,,Im-3m,,,,,,,,,ALLOY_002920,,,Ternary_Alloy,,,Ti_0.60Nb_0.20Zr_0.20,"Ti:60%, Nb:20%, Zr:20%",4.029,,,
Systematic_Generation,,,Ti70Nb10Zr20,,P63/mmc,,,,,,,,,ALLOY_002921,,,Ternary_Alloy,,,Ti_0.70Nb_0.10Zr_0.20,"Ti:70%, Nb:10%, Zr:20%",3.379,,,
Systematic_Generation,,1000000000000000.0,Si:B_1.0e+15,,Inherited,,,,,,,,,DOPED_002922,,,Doped_Semiconductor,,,Si_B,Si + B @ 1.0e+15 cm^-3,,,B,
Systematic_Generation,,5000000000000000.0,Si:B_5.0e+15,,Inherited,,,,,,,,,DOPED_002923,,,Doped_Semiconductor,,,Si_B,Si + B @ 5.0e+15 cm^-3,,,B,
Systematic_Generation,,1e+16,Si:B_1.0e+16,,Inherited,,,,,,,,,DOPED_002924,,,Doped_Semiconductor,,,Si_B,Si + B @ 1.0e+16 cm^-3,,,B,
Systematic_Generation,,5e+16,Si:B_5.0e+16,,Inherited,,,,,,,,,DOPED_002925,,,Doped_Semiconductor,,,Si_B,Si + B @ 5.0e+16 cm^-3,,,B,
Systematic_Generation,,1e+17,Si:B_1.0e+17,,Inherited,,,,,,,,,DOPED_002926,,,Doped_Semiconductor,,,Si_B,Si + B @ 1.0e+17 cm^-3,,,B,
Systematic_Generation,,5e+17,Si:B_5.0e+17,,Inherited,,,,,,,,,DOPED_002927,,,Doped_Semiconductor,,,Si_B,Si + B @ 5.0e+17 cm^-3,,,B,
Systematic_Generation,,1e+18,Si:B_1.0e+18,,Inherited,,,,,,,,,DOPED_002928,,,Doped_Semiconductor,,,Si_B,Si + B @ 1.0e+18 cm^-3,,,B,
Systematic_Generation,,5e+18,Si:B_5.0e+18,,Inherited,,,,,,,,,DOPED_002929,,,Doped_Semiconductor,,,Si_B,Si + B @ 5.0e+18 cm^-3,,,B,
Systematic_Generation,,1e+19,Si:B_1.0e+19,,Inherited,,,,,,,,,DOPED_002930,,,Doped_Semiconductor,,,Si_B,Si + B @ 1.0e+19 cm^-3,,,B,
Systematic_Generation,,5e+19,Si:B_5.0e+19,,Inherited,,,,,,,,,DOPED_002931,,,Doped_Semiconductor,,,Si_B,Si + B @ 5.0e+19 cm^-3,,,B,
Systematic_Generation,,1e+20,Si:B_1.0e+20,,Inherited,,,,,,,,,DOPED_002932,,,Doped_Semiconductor,,,Si_B,Si + B @ 1.0e+20 cm^-3,,,B,
Systematic_Generation,,1e+21,Si:B_1.0e+21,,Inherited,,,,,,,,,DOPED_002933,,,Doped_Semiconductor,,,Si_B,Si + B @ 1.0e+21 cm^-3,,,B,
Systematic_Generation,,1000000000000000.0,Si:P_1.0e+15,,Inherited,,,,,,,,,DOPED_002934,,,Doped_Semiconductor,,,Si_P,Si + P @ 1.0e+15 cm^-3,,,P,
Systematic_Generation,,5000000000000000.0,Si:P_5.0e+15,,Inherited,,,,,,,,,DOPED_002935,,,Doped_Semiconductor,,,Si_P,Si + P @ 5.0e+15 cm^-3,,,P,
Systematic_Generation,,1e+16,Si:P_1.0e+16,,Inherited,,,,,,,,,DOPED_002936,,,Doped_Semiconductor,,,Si_P,Si + P @ 1.0e+16 cm^-3,,,P,
Systematic_Generation,,5e+16,Si:P_5.0e+16,,Inherited,,,,,,,,,DOPED_002937,,,Doped_Semiconductor,,,Si_P,Si + P @ 5.0e+16 cm^-3,,,P,
Systematic_Generation,,1e+17,Si:P_1.0e+17,,Inherited,,,,,,,,,DOPED_002938,,,Doped_Semiconductor,,,Si_P,Si + P @ 1.0e+17 cm^-3,,,P,
Systematic_Generation,,5e+17,Si:P_5.0e+17,,Inherited,,,,,,,,,DOPED_002939,,,Doped_Semiconductor,,,Si_P,Si + P @ 5.0e+17 cm^-3,,,P,
Systematic_Generation,,1e+18,Si:P_1.0e+18,,Inherited,,,,,,,,,DOPED_002940,,,Doped_Semiconductor,,,Si_P,Si + P @ 1.0e+18 cm^-3,,,P,
Systematic_Generation,,5e+18,Si:P_5.0e+18,,Inherited,,,,,,,,,DOPED_002941,,,Doped_Semiconductor,,,Si_P,Si + P @ 5.0e+18 cm^-3,,,P,
Systematic_Generation,,1e+19,Si:P_1.0e+19,,Inherited,,,,,,,,,DOPED_002942,,,Doped_Semiconductor,,,Si_P,Si + P @ 1.0e+19 cm^-3,,,P,
Systematic_Generation,,5e+19,Si:P_5.0e+19,,Inherited,,,,,,,,,DOPED_002943,,,Doped_Semiconductor,,,Si_P,Si + P @ 5.0e+19 cm^-3,,,P,
Systematic_Generation,,1e+20,Si:P_1.0e+20,,Inherited,,,,,,,,,DOPED_002944,,,Doped_Semiconductor,,,Si_P,Si + P @ 1.0e+20 cm^-3,,,P,
Systematic_Generation,,1e+21,Si:P_1.0e+21,,Inherited,,,,,,,,,DOPED_002945,,,Doped_Semiconductor,,,Si_P,Si + P @ 1.0e+21 cm^-3,,,P,
Systematic_Generation,,1000000000000000.0,Si:As_1.0e+15,,Inherited,,,,,,,,,DOPED_002946,,,Doped_Semiconductor,,,Si_As,Si + As @ 1.0e+15 cm^-3,,,As,
Systematic_Generation,,5000000000000000.0,Si:As_5.0e+15,,Inherited,,,,,,,,,DOPED_002947,,,Doped_Semiconductor,,,Si_As,Si + As @ 5.0e+15 cm^-3,,,As,
Systematic_Generation,,1e+16,Si:As_1.0e+16,,Inherited,,,,,,,,,DOPED_002948,,,Doped_Semiconductor,,,Si_As,Si + As @ 1.0e+16 cm^-3,,,As,
Systematic_Generation,,5e+16,Si:As_5.0e+16,,Inherited,,,,,,,,,DOPED_002949,,,Doped_Semiconductor,,,Si_As,Si + As @ 5.0e+16 cm^-3,,,As,
Systematic_Generation,,1e+17,Si:As_1.0e+17,,Inherited,,,,,,,,,DOPED_002950,,,Doped_Semiconductor,,,Si_As,Si + As @ 1.0e+17 cm^-3,,,As,
Systematic_Generation,,5e+17,Si:As_5.0e+17,,Inherited,,,,,,,,,DOPED_002951,,,Doped_Semiconductor,,,Si_As,Si + As @ 5.0e+17 cm^-3,,,As,
Systematic_Generation,,1e+18,Si:As_1.0e+18,,Inherited,,,,,,,,,DOPED_002952,,,Doped_Semiconductor,,,Si_As,Si + As @ 1.0e+18 cm^-3,,,As,
Systematic_Generation,,5e+18,Si:As_5.0e+18,,Inherited,,,,,,,,,DOPED_002953,,,Doped_Semiconductor,,,Si_As,Si + As @ 5.0e+18 cm^-3,,,As,
Systematic_Generation,,1e+19,Si:As_1.0e+19,,Inherited,,,,,,,,,DOPED_002954,,,Doped_Semiconductor,,,Si_As,Si + As @ 1.0e+19 cm^-3,,,As,
Systematic_Generation,,5e+19,Si:As_5.0e+19,,Inherited,,,,,,,,,DOPED_002955,,,Doped_Semiconductor,,,Si_As,Si + As @ 5.0e+19 cm^-3,,,As,
Systematic_Generation,,1e+20,Si:As_1.0e+20,,Inherited,,,,,,,,,DOPED_002956,,,Doped_Semiconductor,,,Si_As,Si + As @ 1.0e+20 cm^-3,,,As,
Systematic_Generation,,1e+21,Si:As_1.0e+21,,Inherited,,,,,,,,,DOPED_002957,,,Doped_Semiconductor,,,Si_As,Si + As @ 1.0e+21 cm^-3,,,As,
Systematic_Generation,,1000000000000000.0,Si:Sb_1.0e+15,,Inherited,,,,,,,,,DOPED_002958,,,Doped_Semiconductor,,,Si_Sb,Si + Sb @ 1.0e+15 cm^-3,,,Sb,
Systematic_Generation,,5000000000000000.0,Si:Sb_5.0e+15,,Inherited,,,,,,,,,DOPED_002959,,,Doped_Semiconductor,,,Si_Sb,Si + Sb @ 5.0e+15 cm^-3,,,Sb,
Systematic_Generation,,1e+16,Si:Sb_1.0e+16,,Inherited,,,,,,,,,DOPED_002960,,,Doped_Semiconductor,,,Si_Sb,Si + Sb @ 1.0e+16 cm^-3,,,Sb,
Systematic_Generation,,5e+16,Si:Sb_5.0e+16,,Inherited,,,,,,,,,DOPED_002961,,,Doped_Semiconductor,,,Si_Sb,Si + Sb @ 5.0e+16 cm^-3,,,Sb,
Systematic_Generation,,1e+17,Si:Sb_1.0e+17,,Inherited,,,,,,,,,DOPED_002962,,,Doped_Semiconductor,,,Si_Sb,Si + Sb @ 1.0e+17 cm^-3,,,Sb,
Systematic_Generation,,5e+17,Si:Sb_5.0e+17,,Inherited,,,,,,,,,DOPED_002963,,,Doped_Semiconductor,,,Si_Sb,Si + Sb @ 5.0e+17 cm^-3,,,Sb,
Systematic_Generation,,1e+18,Si:Sb_1.0e+18,,Inherited,,,,,,,,,DOPED_002964,,,Doped_Semiconductor,,,Si_Sb,Si + Sb @ 1.0e+18 cm^-3,,,Sb,
Systematic_Generation,,5e+18,Si:Sb_5.0e+18,,Inherited,,,,,,,,,DOPED_002965,,,Doped_Semiconductor,,,Si_Sb,Si + Sb @ 5.0e+18 cm^-3,,,Sb,
Systematic_Generation,,1e+19,Si:Sb_1.0e+19,,Inherited,,,,,,,,,DOPED_002966,,,Doped_Semiconductor,,,Si_Sb,Si + Sb @ 1.0e+19 cm^-3,,,Sb,
Systematic_Generation,,5e+19,Si:Sb_5.0e+19,,Inherited,,,,,,,,,DOPED_002967,,,Doped_Semiconductor,,,Si_Sb,Si + Sb @ 5.0e+19 cm^-3,,,Sb,
Systematic_Generation,,1e+20,Si:Sb_1.0e+20,,Inherited,,,,,,,,,DOPED_002968,,,Doped_Semiconductor,,,Si_Sb,Si + Sb @ 1.0e+20 cm^-3,,,Sb,