source,n_elements,doping_concentration,name,termination,space_group,doping_level,volume_fraction,weight_percent,lattice_c,temperature,reinforcement,matrix,layers,material_id,molecular_weight,deposition_method,type,lattice_b,pdi,formula,composition,lattice_a,thickness_nm,dopant,substrate
Systematic_Generation,,,PTFE_Mn750k_PDI2.0,,,,,,,,,,,POLY_006633,750000,,Homopolymer,,2.0,{[]C(F)(F)C(F)(F)[]},PTFE,,,,
Systematic_Generation,,,PTFE_Mn750k_PDI2.5,,,,,,,,,,,POLY_006634,750000,,Homopolymer,,2.5,{[]C(F)(F)C(F)(F)[]},PTFE,,,,
Systematic_Generation,,,PTFE_Mn1000k_PDI1.05,,,,,,,,,,,POLY_006635,1000000,,Homopolymer,,1.05,{[]C(F)(F)C(F)(F)[]},PTFE,,,,
Systematic_Generation,,,PTFE_Mn1000k_PDI1.1,,,,,,,,,,,POLY_006636,1000000,,Homopolymer,,1.1,{[]C(F)(F)C(F)(F)[]},PTFE,,,,
Systematic_Generation,,,PTFE_Mn1000k_PDI1.2,,,,,,,,,,,POLY_006637,1000000,,Homopolymer,,1.2,{[]C(F)(F)C(F)(F)[]},PTFE,,,,
Systematic_Generation,,,PTFE_Mn1000k_PDI1.5,,,,,,,,,,,POLY_006638,1000000,,Homopolymer,,1.5,{[]C(F)(F)C(F)(F)[]},PTFE,,,,
Systematic_Generation,,,PTFE_Mn1000k_PDI2.0,,,,,,,,,,,POLY_006639,1000000,,Homopolymer,,2.0,{[]C(F)(F)C(F)(F)[]},PTFE,,,,
Systematic_Generation,,,PTFE_Mn1000k_PDI2.5,,,,,,,,,,,POLY_006640,1000000,,Homopolymer,,2.5,{[]C(F)(F)C(F)(F)[]},PTFE,,,,
Systematic_Generation,,,PDMS_Mn5k_PDI1.05,,,,,,,,,,,POLY_006641,5000,,Homopolymer,,1.05,{[]Si(C)(C)O[]},PDMS,,,,
Systematic_Generation,,,PDMS_Mn5k_PDI1.1,,,,,,,,,,,POLY_006642,5000,,Homopolymer,,1.1,{[]Si(C)(C)O[]},PDMS,,,,
Systematic_Generation,,,PDMS_Mn5k_PDI1.2,,,,,,,,,,,POLY_006643,5000,,Homopolymer,,1.2,{[]Si(C)(C)O[]},PDMS,,,,
Systematic_Generation,,,PDMS_Mn5k_PDI1.5,,,,,,,,,,,POLY_006644,5000,,Homopolymer,,1.5,{[]Si(C)(C)O[]},PDMS,,,,
Systematic_Generation,,,PDMS_Mn5k_PDI2.0,,,,,,,,,,,POLY_006645,5000,,Homopolymer,,2.0,{[]Si(C)(C)O[]},PDMS,,,,
Systematic_Generation,,,PDMS_Mn5k_PDI2.5,,,,,,,,,,,POLY_006646,5000,,Homopolymer,,2.5,{[]Si(C)(C)O[]},PDMS,,,,
Systematic_Generation,,,PDMS_Mn10k_PDI1.05,,,,,,,,,,,POLY_006647,10000,,Homopolymer,,1.05,{[]Si(C)(C)O[]},PDMS,,,,
Systematic_Generation,,,PDMS_Mn10k_PDI1.1,,,,,,,,,,,POLY_006648,10000,,Homopolymer,,1.1,{[]Si(C)(C)O[]},PDMS,,,,
Systematic_Generation,,,PDMS_Mn10k_PDI1.2,,,,,,,,,,,POLY_006649,10000,,Homopolymer,,1.2,{[]Si(C)(C)O[]},PDMS,,,,
Systematic_Generation,,,PDMS_Mn10k_PDI1.5,,,,,,,,,,,POLY_006650,10000,,Homopolymer,,1.5,{[]Si(C)(C)O[]},PDMS,,,,
Systematic_Generation,,,PDMS_Mn10k_PDI2.0,,,,,,,,,,,POLY_006651,10000,,Homopolymer,,2.0,{[]Si(C)(C)O[]},PDMS,,,,
Systematic_Generation,,,PDMS_Mn10k_PDI2.5,,,,,,,,,,,POLY_006652,10000,,Homopolymer,,2.5,{[]Si(C)(C)O[]},PDMS,,,,
Systematic_Generation,,,PDMS_Mn25k_PDI1.05,,,,,,,,,,,POLY_006653,25000,,Homopolymer,,1.05,{[]Si(C)(C)O[]},PDMS,,,,
Systematic_Generation,,,PDMS_Mn25k_PDI1.1,,,,,,,,,,,POLY_006654,25000,,Homopolymer,,1.1,{[]Si(C)(C)O[]},PDMS,,,,
Systematic_Generation,,,PDMS_Mn25k_PDI1.2,,,,,,,,,,,POLY_006655,25000,,Homopolymer,,1.2,{[]Si(C)(C)O[]},PDMS,,,,
Systematic_Generation,,,PDMS_Mn25k_PDI1.5,,,,,,,,,,,POLY_006656,25000,,Homopolymer,,1.5,{[]Si(C)(C)O[]},PDMS,,,,
Systematic_Generation,,,PDMS_Mn25k_PDI2.0,,,,,,,,,,,POLY_006657,25000,,Homopolymer,,2.0,{[]Si(C)(C)O[]},PDMS,,,,
Systematic_Generation,,,PDMS_Mn25k_PDI2.5,,,,,,,,,,,POLY_006658,25000,,Homopolymer,,2.5,{[]Si(C)(C)O[]},PDMS,,,,
Systematic_Generation,,,PDMS_Mn50k_PDI1.05,,,,,,,,,,,POLY_006659,50000,,Homopolymer,,1.05,{[]Si(C)(C)O[]},PDMS,,,,
Systematic_Generation,,,PDMS_Mn50k_PDI1.1,,,,,,,,,,,POLY_006660,50000,,Homopolymer,,1.1,{[]Si(C)(C)O[]},PDMS,,,,
Systematic_Generation,,,PDMS_Mn50k_PDI1.2,,,,,,,,,,,POLY_006661,50000,,Homopolymer,,1.2,{[]Si(C)(C)O[]},PDMS,,,,
Systematic_Generation,,,PDMS_Mn50k_PDI1.5,,,,,,,,,,,POLY_006662,50000,,Homopolymer,,1.5,{[]Si(C)(C)O[]},PDMS,,,,
Systematic_Generation,,,PDMS_Mn50k_PDI2.0,,,,,,,,,,,POLY_006663,50000,,Homopolymer,,2.0,{[]Si(C)(C)O[]},PDMS,,,,
Systematic_Generation,,,PDMS_Mn50k_PDI2.5,,,,,,,,,,,POLY_006664,50000,,Homopolymer,,2.5,{[]Si(C)(C)O[]},PDMS,,,,
Systematic_Generation,,,PDMS_Mn75k_PDI1.05,,,,,,,,,,,POLY_006665,75000,,Homopolymer,,1.05,{[]Si(C)(C)O[]},PDMS,,,,
Systematic_Generation,,,PDMS_Mn75k_PDI1.1,,,,,,,,,,,POLY_006666,75000,,Homopolymer,,1.1,{[]Si(C)(C)O[]},PDMS,,,,
Systematic_Generation,,,PDMS_Mn75k_PDI1.2,,,,,,,,,,,POLY_006667,75000,,Homopolymer,,1.2,{[]Si(C)(C)O[]},PDMS,,,,
Systematic_Generation,,,PDMS_Mn75k_PDI1.5,,,,,,,,,,,POLY_006668,75000,,Homopolymer,,1.5,{[]Si(C)(C)O[]},PDMS,,,,
Systematic_Generation,,,PDMS_Mn75k_PDI2.0,,,,,,,,,,,POLY_006669,75000,,Homopolymer,,2.0,{[]Si(C)(C)O[]},PDMS,,,,
Systematic_Generation,,,PDMS_Mn75k_PDI2.5,,,,,,,,,,,POLY_006670,75000,,Homopolymer,,2.5,{[]Si(C)(C)O[]},PDMS,,,,
Systematic_Generation,,,PDMS_Mn100k_PDI1.05,,,,,,,,,,,POLY_006671,100000,,Homopolymer,,1.05,{[]Si(C)(C)O[]},PDMS,,,,
Systematic_Generation,,,PDMS_Mn100k_PDI1.1,,,,,,,,,,,POLY_006672,100000,,Homopolymer,,1.1,{[]Si(C)(C)O[]},PDMS,,,,
Systematic_Generation,,,PDMS_Mn100k_PDI1.2,,,,,,,,,,,POLY_006673,100000,,Homopolymer,,1.2,{[]Si(C)(C)O[]},PDMS,,,,
Systematic_Generation,,,PDMS_Mn100k_PDI1.5,,,,,,,,,,,POLY_006674,100000,,Homopolymer,,1.5,{[]Si(C)(C)O[]},PDMS,,,,
Systematic_Generation,,,PDMS_Mn100k_PDI2.0,,,,,,,,,,,POLY_006675,100000,,Homopolymer,,2.0,{[]Si(C)(C)O[]},PDMS,,,,
Systematic_Generation,,,PDMS_Mn100k_PDI2.5,,,,,,,,,,,POLY_006676,100000,,Homopolymer,,2.5,{[]Si(C)(C)O[]},PDMS,,,,
Systematic_Generation,,,PDMS_Mn150k_PDI1.05,,,,,,,,,,,POLY_006677,150000,,Homopolymer,,1.05,{[]Si(C)(C)O[]},PDMS,,,,
Systematic_Generation,,,PDMS_Mn150k_PDI1.1,,,,,,,,,,,POLY_006678,150000,,Homopolymer,,1.1,{[]Si(C)(C)O[]},PDMS,,,,
Systematic_Generation,,,PDMS_Mn150k_PDI1.2,,,,,,,,,,,POLY_006679,150000,,Homopolymer,,1.2,{[]Si(C)(C)O[]},PDMS,,,,
Systematic_Generation,,,PDMS_Mn150k_PDI1.5,,,,,,,,,,,POLY_006680,150000,,Homopolymer,,1.5,{[]Si(C)(C)O[]},PDMS,,,,
Systematic_Generation,,,PDMS_Mn150k_PDI2.0,,,,,,,,,,,POLY_006681,150000,,Homopolymer,,2.0,{[]Si(C)(C)O[]},PDMS,,,,
Systematic_Generation,,,PDMS_Mn150k_PDI2.5,,,,,,,,,,,POLY_006682,150000,,Homopolymer,,2.5,{[]Si(C)(C)O[]},PDMS,,,,
Systematic_Generation,,,PDMS_Mn200k_PDI1.05,,,,,,,,,,,POLY_006683,200000,,Homopolymer,,1.05,{[]Si(C)(C)O[]},PDMS,,,,
Systematic_Generation,,,PDMS_Mn200k_PDI1.1,,,,,,,,,,,POLY_006684,200000,,Homopolymer,,1.1,{[]Si(C)(C)O[]},PDMS,,,,
Systematic_Generation,,,PDMS_Mn200k_PDI1.2,,,,,,,,,,,POLY_006685,200000,,Homopolymer,,1.2,{[]Si(C)(C)O[]},PDMS,,,,
Systematic_Generation,,,PDMS_Mn200k_PDI1.5,,,,,,,,,,,POLY_006686,200000,,Homopolymer,,1.5,{[]Si(C)(C)O[]},PDMS,,,,
Systematic_Generation,,,PDMS_Mn200k_PDI2.0,,,,,,,,,,,POLY_006687,200000,,Homopolymer,,2.0,{[]Si(C)(C)O[]},PDMS,,,,
Systematic_Generation,,,PDMS_Mn200k_PDI2.5,,,,,,,,,,,POLY_006688,200000,,Homopolymer,,2.5,{[]Si(C)(C)O[]},PDMS,,,,
Systematic_Generation,,,PDMS_Mn300k_PDI1.05,,,,,,,,,,,POLY_006689,300000,,Homopolymer,,1.05,{[]Si(C)(C)O[]},PDMS,,,,
Systematic_Generation,,,PDMS_Mn300k_PDI1.1,,,,,,,,,,,POLY_006690,300000,,Homopolymer,,1.1,{[]Si(C)(C)O[]},PDMS,,,,
Systematic_Generation,,,PDMS_Mn300k_PDI1.2,,,,,,,,,,,POLY_006691,300000,,Homopolymer,,1.2,{[]Si(C)(C)O[]},PDMS,,,,
Systematic_Generation,,,PDMS_Mn300k_PDI1.5,,,,,,,,,,,POLY_006692,300000,,Homopolymer,,1.5,{[]Si(C)(C)O[]},PDMS,,,,
Systematic_Generation,,,PDMS_Mn300k_PDI2.0,,,,,,,,,,,POLY_006693,300000,,Homopolymer,,2.0,{[]Si(C)(C)O[]},PDMS,,,,
Systematic_Generation,,,PDMS_Mn300k_PDI2.5,,,,,,,,,,,POLY_006694,300000,,Homopolymer,,2.5,{[]Si(C)(C)O[]},PDMS,,,,
Systematic_Generation,,,PDMS_Mn500k_PDI1.05,,,,,,,,,,,POLY_006695,500000,,Homopolymer,,1.05,{[]Si(C)(C)O[]},PDMS,,,,
Systematic_Generation,,,PDMS_Mn500k_PDI1.1,,,,,,,,,,,POLY_006696,500000,,Homopolymer,,1.1,{[]Si(C)(C)O[]},PDMS,,,,
Systematic_Generation,,,PDMS_Mn500k_PDI1.2,,,,,,,,,,,POLY_006697,500000,,Homopolymer,,1.2,{[]Si(C)(C)O[]},PDMS,,,,
Systematic_Generation,,,PDMS_Mn500k_PDI1.5,,,,,,,,,,,POLY_006698,500000,,Homopolymer,,1.5,{[]Si(C)(C)O[]},PDMS,,,,
Systematic_Generation,,,PDMS_Mn500k_PDI2.0,,,,,,,,,,,POLY_006699,500000,,Homopolymer,,2.0,{[]Si(C)(C)O[]},PDMS,,,,
Systematic_Generation,,,PDMS_Mn500k_PDI2.5,,,,,,,,,,,POLY_006700,500000,,Homopolymer,,2.5,{[]Si(C)(C)O[]},PDMS,,,,
Systematic_Generation,,,PDMS_Mn750k_PDI1.05,,,,,,,,,,,POLY_006701,750000,,Homopolymer,,1.05,{[]Si(C)(C)O[]},PDMS,,,,
Systematic_Generation,,,PDMS_Mn750k_PDI1.1,,,,,,,,,,,POLY_006702,750000,,Homopolymer,,1.1,{[]Si(C)(C)O[]},PDMS,,,,
Systematic_Generation,,,PDMS_Mn750k_PDI1.2,,,,,,,,,,,POLY_006703,750000,,Homopolymer,,1.2,{[]Si(C)(C)O[]},PDMS,,,,
Systematic_Generation,,,PDMS_Mn750k_PDI1.5,,,,,,,,,,,POLY_006704,750000,,Homopolymer,,1.5,{[]Si(C)(C)O[]},PDMS,,,,
Systematic_Generation,,,PDMS_Mn750k_PDI2.0,,,,,,,,,,,POLY_006705,750000,,Homopolymer,,2.0,{[]Si(C)(C)O[]},PDMS,,,,
Systematic_Generation,,,PDMS_Mn750k_PDI2.5,,,,,,,,,,,POLY_006706,750000,,Homopolymer,,2.5,{[]Si(C)(C)O[]},PDMS,,,,
Systematic_Generation,,,PDMS_Mn1000k_PDI1.05,,,,,,,,,,,POLY_006707,1000000,,Homopolymer,,1.05,{[]Si(C)(C)O[]},PDMS,,,,
Systematic_Generation,,,PDMS_Mn1000k_PDI1.1,,,,,,,,,,,POLY_006708,1000000,,Homopolymer,,1.1,{[]Si(C)(C)O[]},PDMS,,,,
Systematic_Generation,,,PDMS_Mn1000k_PDI1.2,,,,,,,,,,,POLY_006709,1000000,,Homopolymer,,1.2,{[]Si(C)(C)O[]},PDMS,,,,
Systematic_Generation,,,PDMS_Mn1000k_PDI1.5,,,,,,,,,,,POLY_006710,1000000,,Homopolymer,,1.5,{[]Si(C)(C)O[]},PDMS,,,,
Systematic_Generation,,,PDMS_Mn1000k_PDI2.0,,,,,,,,,,,POLY_006711,1000000,,Homopolymer,,2.0,{[]Si(C)(C)O[]},PDMS,,,,
Systematic_Generation,,,PDMS_Mn1000k_PDI2.5,,,,,,,,,,,POLY_006712,1000000,,Homopolymer,,2.5,{[]Si(C)(C)O[]},PDMS,,,,
Systematic_Generation,,,PEO_Mn5k_PDI1.05,,,,,,,,,,,POLY_006713,5000,,Homopolymer,,1.05,{[]CCO[]},PEO,,,,
Systematic_Generation,,,PEO_Mn5k_PDI1.1,,,,,,,,,,,POLY_006714,5000,,Homopolymer,,1.1,{[]CCO[]},PEO,,,,
Systematic_Generation,,,PEO_Mn5k_PDI1.2,,,,,,,,,,,POLY_006715,5000,,Homopolymer,,1.2,{[]CCO[]},PEO,,,,
Systematic_Generation,,,PEO_Mn5k_PDI1.5,,,,,,,,,,,POLY_006716,5000,,Homopolymer,,1.5,{[]CCO[]},PEO,,,,
Systematic_Generation,,,PEO_Mn5k_PDI2.0,,,,,,,,,,,POLY_006717,5000,,Homopolymer,,2.0,{[]CCO[]},PEO,,,,
Systematic_Generation,,,PEO_Mn5k_PDI2.5,,,,,,,,,,,POLY_006718,5000,,Homopolymer,,2.5,{[]CCO[]},PEO,,,,
Systematic_Generation,,,PEO_Mn10k_PDI1.05,,,,,,,,,,,POLY_006719,10000,,Homopolymer,,1.05,{[]CCO[]},PEO,,,,
Systematic_Generation,,,PEO_Mn10k_PDI1.1,,,,,,,,,,,POLY_006720,10000,,Homopolymer,,1.1,{[]CCO[]},PEO,,,,
Systematic_Generation,,,PEO_Mn10k_PDI1.2,,,,,,,,,,,POLY_006721,10000,,Homopolymer,,1.2,{[]CCO[]},PEO,,,,
Systematic_Generation,,,PEO_Mn10k_PDI1.5,,,,,,,,,,,POLY_006722,10000,,Homopolymer,,1.5,{[]CCO[]},PEO,,,,
Systematic_Generation,,,PEO_Mn10k_PDI2.0,,,,,,,,,,,POLY_006723,10000,,Homopolymer,,2.0,{[]CCO[]},PEO,,,,
Systematic_Generation,,,PEO_Mn10k_PDI2.5,,,,,,,,,,,POLY_006724,10000,,Homopolymer,,2.5,{[]CCO[]},PEO,,,,
Systematic_Generation,,,PEO_Mn25k_PDI1.05,,,,,,,,,,,POLY_006725,25000,,Homopolymer,,1.05,{[]CCO[]},PEO,,,,
Systematic_Generation,,,PEO_Mn25k_PDI1.1,,,,,,,,,,,POLY_006726,25000,,Homopolymer,,1.1,{[]CCO[]},PEO,,,,
Systematic_Generation,,,PEO_Mn25k_PDI1.2,,,,,,,,,,,POLY_006727,25000,,Homopolymer,,1.2,{[]CCO[]},PEO,,,,
Systematic_Generation,,,PEO_Mn25k_PDI1.5,,,,,,,,,,,POLY_006728,25000,,Homopolymer,,1.5,{[]CCO[]},PEO,,,,
Systematic_Generation,,,PEO_Mn25k_PDI2.0,,,,,,,,,,,POLY_006729,25000,,Homopolymer,,2.0,{[]CCO[]},PEO,,,,
Systematic_Generation,,,PEO_Mn25k_PDI2.5,,,,,,,,,,,POLY_006730,25000,,Homopolymer,,2.5,{[]CCO[]},PEO,,,,
Systematic_Generation,,,PEO_Mn50k_PDI1.05,,,,,,,,,,,POLY_006731,50000,,Homopolymer,,1.05,{[]CCO[]},PEO,,,,
Systematic_Generation,,,PEO_Mn50k_PDI1.1,,,,,,,,,,,POLY_006732,50000,,Homopolymer,,1.1,{[]CCO[]},PEO,,,,
Systematic_Generation,,,PEO_Mn50k_PDI1.2,,,,,,,,,,,POLY_006733,50000,,Homopolymer,,1.2,{[]CCO[]},PEO,,,,
Systematic_Generation,,,PEO_Mn50k_PDI1.5,,,,,,,,,,,POLY_006734,50000,,Homopolymer,,1.5,{[]CCO[]},PEO,,,,
Systematic_Generation,,,PEO_Mn50k_PDI2.0,,,,,,,,,,,POLY_006735,50000,,Homopolymer,,2.0,{[]CCO[]},PEO,,,,
Systematic_Generation,,,PEO_Mn50k_PDI2.5,,,,,,,,,,,POLY_006736,50000,,Homopolymer,,2.5,{[]CCO[]},PEO,,,,
Systematic_Generation,,,PEO_Mn75k_PDI1.05,,,,,,,,,,,POLY_006737,75000,,Homopolymer,,1.05,{[]CCO[]},PEO,,,,
Systematic_Generation,,,PEO_Mn75k_PDI1.1,,,,,,,,,,,POLY_006738,75000,,Homopolymer,,1.1,{[]CCO[]},PEO,,,,
Systematic_Generation,,,PEO_Mn75k_PDI1.2,,,,,,,,,,,POLY_006739,75000,,Homopolymer,,1.2,{[]CCO[]},PEO,,,,
Systematic_Generation,,,PEO_Mn75k_PDI1.5,,,,,,,,,,,POLY_006740,75000,,Homopolymer,,1.5,{[]CCO[]},PEO,,,,
Systematic_Generation,,,PEO_Mn75k_PDI2.0,,,,,,,,,,,POLY_006741,75000,,Homopolymer,,2.0,{[]CCO[]},PEO,,,,
Systematic_Generation,,,PEO_Mn75k_PDI2.5,,,,,,,,,,,POLY_006742,75000,,Homopolymer,,2.5,{[]CCO[]},PEO,,,,
Systematic_Generation,,,PEO_Mn100k_PDI1.05,,,,,,,,,,,POLY_006743,100000,,Homopolymer,,1.05,{[]CCO[]},PEO,,,,
Systematic_Generation,,,PEO_Mn100k_PDI1.1,,,,,,,,,,,POLY_006744,100000,,Homopolymer,,1.1,{[]CCO[]},PEO,,,,
Systematic_Generation,,,PEO_Mn100k_PDI1.2,,,,,,,,,,,POLY_006745,100000,,Homopolymer,,1.2,{[]CCO[]},PEO,,,,
Systematic_Generation,,,PEO_Mn100k_PDI1.5,,,,,,,,,,,POLY_006746,100000,,Homopolymer,,1.5,{[]CCO[]},PEO,,,,
Systematic_Generation,,,PEO_Mn100k_PDI2.0,,,,,,,,,,,POLY_006747,100000,,Homopolymer,,2.0,{[]CCO[]},PEO,,,,
Systematic_Generation,,,PEO_Mn100k_PDI2.5,,,,,,,,,,,POLY_006748,100000,,Homopolymer,,2.5,{[]CCO[]},PEO,,,,
Systematic_Generation,,,PEO_Mn150k_PDI1.05,,,,,,,,,,,POLY_006749,150000,,Homopolymer,,1.05,{[]CCO[]},PEO,,,,
Systematic_Generation,,,PEO_Mn150k_PDI1.1,,,,,,,,,,,POLY_006750,150000,,Homopolymer,,1.1,{[]CCO[]},PEO,,,,
Systematic_Generation,,,PEO_Mn150k_PDI1.2,,,,,,,,,,,POLY_006751,150000,,Homopolymer,,1.2,{[]CCO[]},PEO,,,,
Systematic_Generation,,,PEO_Mn150k_PDI1.5,,,,,,,,,,,POLY_006752,150000,,Homopolymer,,1.5,{[]CCO[]},PEO,,,,
Systematic_Generation,,,PEO_Mn150k_PDI2.0,,,,,,,,,,,POLY_006753,150000,,Homopolymer,,2.0,{[]CCO[]},PEO,,,,
Systematic_Generation,,,PEO_Mn150k_PDI2.5,,,,,,,,,,,POLY_006754,150000,,Homopolymer,,2.5,{[]CCO[]},PEO,,,,
Systematic_Generation,,,PEO_Mn200k_PDI1.05,,,,,,,,,,,POLY_006755,200000,,Homopolymer,,1.05,{[]CCO[]},PEO,,,,
Systematic_Generation,,,PEO_Mn200k_PDI1.1,,,,,,,,,,,POLY_006756,200000,,Homopolymer,,1.1,{[]CCO[]},PEO,,,,
Systematic_Generation,,,PEO_Mn200k_PDI1.2,,,,,,,,,,,POLY_006757,200000,,Homopolymer,,1.2,{[]CCO[]},PEO,,,,
Systematic_Generation,,,PEO_Mn200k_PDI1.5,,,,,,,,,,,POLY_006758,200000,,Homopolymer,,1.5,{[]CCO[]},PEO,,,,
Systematic_Generation,,,PEO_Mn200k_PDI2.0,,,,,,,,,,,POLY_006759,200000,,Homopolymer,,2.0,{[]CCO[]},PEO,,,,
Systematic_Generation,,,PEO_Mn200k_PDI2.5,,,,,,,,,,,POLY_006760,200000,,Homopolymer,,2.5,{[]CCO[]},PEO,,,,
Systematic_Generation,,,PEO_Mn300k_PDI1.05,,,,,,,,,,,POLY_006761,300000,,Homopolymer,,1.05,{[]CCO[]},PEO,,,,
Systematic_Generation,,,PEO_Mn300k_PDI1.1,,,,,,,,,,,POLY_006762,300000,,Homopolymer,,1.1,{[]CCO[]},PEO,,,,
Systematic_Generation,,,PEO_Mn300k_PDI1.2,,,,,,,,,,,POLY_006763,300000,,Homopolymer,,1.2,{[]CCO[]},PEO,,,,
Systematic_Generation,,,PEO_Mn300k_PDI1.5,,,,,,,,,,,POLY_006764,300000,,Homopolymer,,1.5,{[]CCO[]},PEO,,,,
Systematic_Generation,,,PEO_Mn300k_PDI2.0,,,,,,,,,,,POLY_006765,300000,,Homopolymer,,2.0,{[]CCO[]},PEO,,,,
Systematic_Generation,,,PEO_Mn300k_PDI2.5,,,,,,,,,,,POLY_006766,300000,,Homopolymer,,2.5,{[]CCO[]},PEO,,,,
Systematic_Generation,,,PEO_Mn500k_PDI1.05,,,,,,,,,,,POLY_006767,500000,,Homopolymer,,1.05,{[]CCO[]},PEO,,,,
Systematic_Generation,,,PEO_Mn500k_PDI1.1,,,,,,,,,,,POLY_006768,500000,,Homopolymer,,1.1,{[]CCO[]},PEO,,,,
Systematic_Generation,,,PEO_Mn500k_PDI1.2,,,,,,,,,,,POLY_006769,500000,,Homopolymer,,1.2,{[]CCO[]},PEO,,,,
Systematic_Generation,,,PEO_Mn500k_PDI1.5,,,,,,,,,,,POLY_006770,500000,,Homopolymer,,1.5,{[]CCO[]},PEO,,,,
Systematic_Generation,,,PEO_Mn500k_PDI2.0,,,,,,,,,,,POLY_006771,500000,,Homopolymer,,2.0,{[]CCO[]},PEO,,,,
Systematic_Generation,,,PEO_Mn500k_PDI2.5,,,,,,,,,,,POLY_006772,500000,,Homopolymer,,2.5,{[]CCO[]},PEO,,,,
Systematic_Generation,,,PEO_Mn750k_PDI1.05,,,,,,,,,,,POLY_006773,750000,,Homopolymer,,1.05,{[]CCO[]},PEO,,,,
Systematic_Generation,,,PEO_Mn750k_PDI1.1,,,,,,,,,,,POLY_006774,750000,,Homopolymer,,1.1,{[]CCO[]},PEO,,,,
Systematic_Generation,,,PEO_Mn750k_PDI1.2,,,,,,,,,,,POLY_006775,750000,,Homopolymer,,1.2,{[]CCO[]},PEO,,,,
Systematic_Generation,,,PEO_Mn750k_PDI1.5,,,,,,,,,,,POLY_006776,750000,,Homopolymer,,1.5,{[]CCO[]},PEO,,,,
Systematic_Generation,,,PEO_Mn750k_PDI2.0,,,,,,,,,,,POLY_006777,750000,,Homopolymer,,2.0,{[]CCO[]},PEO,,,,
Systematic_Generation,,,PEO_Mn750k_PDI2.5,,,,,,,,,,,POLY_006778,750000,,Homopolymer,,2.5,{[]CCO[]},PEO,,,,
Systematic_Generation,,,PEO_Mn1000k_PDI1.05,,,,,,,,,,,POLY_006779,1000000,,Homopolymer,,1.05,{[]CCO[]},PEO,,,,
Systematic_Generation,,,PEO_Mn1000k_PDI1.1,,,,,,,,,,,POLY_006780,1000000,,Homopolymer,,1.1,{[]CCO[]},PEO,,,,
Systematic_Generation,,,PEO_Mn1000k_PDI1.2,,,,,,,,,,,POLY_006781,1000000,,Homopolymer,,1.2,{[]CCO[]},PEO,,,,
Systematic_Generation,,,PEO_Mn1000k_PDI1.5,,,,,,,,,,,POLY_006782,1000000,,Homopolymer,,1.5,{[]CCO[]},PEO,,,,
Systematic_Generation,,,PEO_Mn1000k_PDI2.0,,,,,,,,,,,POLY_006783,1000000,,Homopolymer,,2.0,{[]CCO[]},PEO,,,,
Systematic_Generation,,,PEO_Mn1000k_PDI2.5,,,,,,,,,,,POLY_006784,1000000,,Homopolymer,,2.5,{[]CCO[]},PEO,,,,
Systematic_Generation,,,PLA_Mn5k_PDI1.05,,,,,,,,,,,POLY_006785,5000,,Homopolymer,,1.05,{[]OC(C)C(=O)[]},PLA,,,,
Systematic_Generation,,,PLA_Mn5k_PDI1.1,,,,,,,,,,,POLY_006786,5000,,Homopolymer,,1.1,{[]OC(C)C(=O)[]},PLA,,,,
Systematic_Generation,,,PLA_Mn5k_PDI1.2,,,,,,,,,,,POLY_006787,5000,,Homopolymer,,1.2,{[]OC(C)C(=O)[]},PLA,,,,
Systematic_Generation,,,PLA_Mn5k_PDI1.5,,,,,,,,,,,POLY_006788,5000,,Homopolymer,,1.5,{[]OC(C)C(=O)[]},PLA,,,,
Systematic_Generation,,,PLA_Mn5k_PDI2.0,,,,,,,,,,,POLY_006789,5000,,Homopolymer,,2.0,{[]OC(C)C(=O)[]},PLA,,,,
Systematic_Generation,,,PLA_Mn5k_PDI2.5,,,,,,,,,,,POLY_006790,5000,,Homopolymer,,2.5,{[]OC(C)C(=O)[]},PLA,,,,
Systematic_Generation,,,PLA_Mn10k_PDI1.05,,,,,,,,,,,POLY_006791,10000,,Homopolymer,,1.05,{[]OC(C)C(=O)[]},PLA,,,,
Systematic_Generation,,,PLA_Mn10k_PDI1.1,,,,,,,,,,,POLY_006792,10000,,Homopolymer,,1.1,{[]OC(C)C(=O)[]},PLA,,,,
Systematic_Generation,,,PLA_Mn10k_PDI1.2,,,,,,,,,,,POLY_006793,10000,,Homopolymer,,1.2,{[]OC(C)C(=O)[]},PLA,,,,
Systematic_Generation,,,PLA_Mn10k_PDI1.5,,,,,,,,,,,POLY_006794,10000,,Homopolymer,,1.5,{[]OC(C)C(=O)[]},PLA,,,,
Systematic_Generation,,,PLA_Mn10k_PDI2.0,,,,,,,,,,,POLY_006795,10000,,Homopolymer,,2.0,{[]OC(C)C(=O)[]},PLA,,,,
Systematic_Generation,,,PLA_Mn10k_PDI2.5,,,,,,,,,,,POLY_006796,10000,,Homopolymer,,2.5,{[]OC(C)C(=O)[]},PLA,,,,
Systematic_Generation,,,PLA_Mn25k_PDI1.05,,,,,,,,,,,POLY_006797,25000,,Homopolymer,,1.05,{[]OC(C)C(=O)[]},PLA,,,,
Systematic_Generation,,,PLA_Mn25k_PDI1.1,,,,,,,,,,,POLY_006798,25000,,Homopolymer,,1.1,{[]OC(C)C(=O)[]},PLA,,,,
Systematic_Generation,,,PLA_Mn25k_PDI1.2,,,,,,,,,,,POLY_006799,25000,,Homopolymer,,1.2,{[]OC(C)C(=O)[]},PLA,,,,
Systematic_Generation,,,PLA_Mn25k_PDI1.5,,,,,,,,,,,POLY_006800,25000,,Homopolymer,,1.5,{[]OC(C)C(=O)[]},PLA,,,,
Systematic_Generation,,,PLA_Mn25k_PDI2.0,,,,,,,,,,,POLY_006801,25000,,Homopolymer,,2.0,{[]OC(C)C(=O)[]},PLA,,,,
Systematic_Generation,,,PLA_Mn25k_PDI2.5,,,,,,,,,,,POLY_006802,25000,,Homopolymer,,2.5,{[]OC(C)C(=O)[]},PLA,,,,
Systematic_Generation,,,PLA_Mn50k_PDI1.05,,,,,,,,,,,POLY_006803,50000,,Homopolymer,,1.05,{[]OC(C)C(=O)[]},PLA,,,,
Systematic_Generation,,,PLA_Mn50k_PDI1.1,,,,,,,,,,,POLY_006804,50000,,Homopolymer,,1.1,{[]OC(C)C(=O)[]},PLA,,,,
Systematic_Generation,,,PLA_Mn50k_PDI1.2,,,,,,,,,,,POLY_006805,50000,,Homopolymer,,1.2,{[]OC(C)C(=O)[]},PLA,,,,
Systematic_Generation,,,PLA_Mn50k_PDI1.5,,,,,,,,,,,POLY_006806,50000,,Homopolymer,,1.5,{[]OC(C)C(=O)[]},PLA,,,,
Systematic_Generation,,,PLA_Mn50k_PDI2.0,,,,,,,,,,,POLY_006807,50000,,Homopolymer,,2.0,{[]OC(C)C(=O)[]},PLA,,,,
Systematic_Generation,,,PLA_Mn50k_PDI2.5,,,,,,,,,,,POLY_006808,50000,,Homopolymer,,2.5,{[]OC(C)C(=O)[]},PLA,,,,
Systematic_Generation,,,PLA_Mn75k_PDI1.05,,,,,,,,,,,POLY_006809,75000,,Homopolymer,,1.05,{[]OC(C)C(=O)[]},PLA,,,,