source,n_elements,doping_concentration,name,termination,space_group,doping_level,volume_fraction,weight_percent,lattice_c,temperature,reinforcement,matrix,layers,material_id,molecular_weight,deposition_method,type,lattice_b,pdi,formula,composition,lattice_a,thickness_nm,dopant,substrate
Systematic_Generation,,,Hf3C2T2,OH,P63/mmc,,,,20.274,,,,,MXENE_005795,,,MXene_2D,,,Hf3C2T2,"Hf:3, C:2, Termination:OH",3.082,,,
Systematic_Generation,,,Hf3C2T1,F,P63/mmc,,,,21.432,,,,,MXENE_005796,,,MXene_2D,,,Hf3C2T1,"Hf:3, C:2, Termination:F",3.102,,,
Systematic_Generation,,,Hf3C2T2,Cl,P63/mmc,,,,22.604,,,,,MXENE_005797,,,MXene_2D,,,Hf3C2T2,"Hf:3, C:2, Termination:Cl",3.057,,,
Systematic_Generation,,,Hf4C3T1,O,P63/mmc,,,,18.853,,,,,MXENE_005798,,,MXene_2D,,,Hf4C3T1,"Hf:4, C:3, Termination:O",3.135,,,
Systematic_Generation,,,Hf4C3T2,OH,P63/mmc,,,,19.666,,,,,MXENE_005799,,,MXene_2D,,,Hf4C3T2,"Hf:4, C:3, Termination:OH",3.125,,,
Systematic_Generation,,,Hf4C3T1,F,P63/mmc,,,,22.686,,,,,MXENE_005800,,,MXene_2D,,,Hf4C3T1,"Hf:4, C:3, Termination:F",3.05,,,
Systematic_Generation,,,Hf4C3T2,Cl,P63/mmc,,,,21.592,,,,,MXENE_005801,,,MXene_2D,,,Hf4C3T2,"Hf:4, C:3, Termination:Cl",3.026,,,
Systematic_Generation,,,Hf2N1T1,O,P63/mmc,,,,18.343,,,,,MXENE_005802,,,MXene_2D,,,Hf2N1T1,"Hf:2, N:1, Termination:O",3.048,,,
Systematic_Generation,,,Hf2N1T2,OH,P63/mmc,,,,21.203,,,,,MXENE_005803,,,MXene_2D,,,Hf2N1T2,"Hf:2, N:1, Termination:OH",3.084,,,
Systematic_Generation,,,Hf2N1T1,F,P63/mmc,,,,20.162,,,,,MXENE_005804,,,MXene_2D,,,Hf2N1T1,"Hf:2, N:1, Termination:F",3.185,,,
Systematic_Generation,,,Hf2N1T2,Cl,P63/mmc,,,,18.99,,,,,MXENE_005805,,,MXene_2D,,,Hf2N1T2,"Hf:2, N:1, Termination:Cl",3.094,,,
Systematic_Generation,,,Hf3N2T1,O,P63/mmc,,,,22.307,,,,,MXENE_005806,,,MXene_2D,,,Hf3N2T1,"Hf:3, N:2, Termination:O",3.172,,,
Systematic_Generation,,,Hf3N2T2,OH,P63/mmc,,,,18.098,,,,,MXENE_005807,,,MXene_2D,,,Hf3N2T2,"Hf:3, N:2, Termination:OH",3.038,,,
Systematic_Generation,,,Hf3N2T1,F,P63/mmc,,,,19.648,,,,,MXENE_005808,,,MXene_2D,,,Hf3N2T1,"Hf:3, N:2, Termination:F",3.196,,,
Systematic_Generation,,,Hf3N2T2,Cl,P63/mmc,,,,18.046,,,,,MXENE_005809,,,MXene_2D,,,Hf3N2T2,"Hf:3, N:2, Termination:Cl",3.16,,,
Systematic_Generation,,,Hf4N3T1,O,P63/mmc,,,,21.405,,,,,MXENE_005810,,,MXene_2D,,,Hf4N3T1,"Hf:4, N:3, Termination:O",3.18,,,
Systematic_Generation,,,Hf4N3T2,OH,P63/mmc,,,,20.432,,,,,MXENE_005811,,,MXene_2D,,,Hf4N3T2,"Hf:4, N:3, Termination:OH",3.065,,,
Systematic_Generation,,,Hf4N3T1,F,P63/mmc,,,,18.755,,,,,MXENE_005812,,,MXene_2D,,,Hf4N3T1,"Hf:4, N:3, Termination:F",3.057,,,
Systematic_Generation,,,Hf4N3T2,Cl,P63/mmc,,,,20.825,,,,,MXENE_005813,,,MXene_2D,,,Hf4N3T2,"Hf:4, N:3, Termination:Cl",3.022,,,
Systematic_Generation,,,Graphene_1L,,P6/mmm,,,,,,,,1 layer(s),2D_005814,,,2D_Material,,,C,C,2.46,,,
Systematic_Generation,,,Graphene_2L,,P6/mmm,,,,,,,,2 layer(s),2D_005815,,,2D_Material,,,C,C,2.46,,,
Systematic_Generation,,,Graphene_3L,,P6/mmm,,,,,,,,3 layer(s),2D_005816,,,2D_Material,,,C,C,2.46,,,
Systematic_Generation,,,Graphene_4L,,P6/mmm,,,,,,,,4 layer(s),2D_005817,,,2D_Material,,,C,C,2.46,,,
Systematic_Generation,,,Graphene_5L,,P6/mmm,,,,,,,,5 layer(s),2D_005818,,,2D_Material,,,C,C,2.46,,,
Systematic_Generation,,,Graphene_fewL,,P6/mmm,,,,,,,,few layer(s),2D_005819,,,2D_Material,,,C,C,2.46,,,
Systematic_Generation,,,Graphene_multiL,,P6/mmm,,,,,,,,multi layer(s),2D_005820,,,2D_Material,,,C,C,2.46,,,
Systematic_Generation,,,h-BN_1L,,P63/mmc,,,,6.66,,,,1 layer(s),2D_005821,,,2D_Material,,,BN,BN,2.5,,,
Systematic_Generation,,,h-BN_2L,,P63/mmc,,,,6.66,,,,2 layer(s),2D_005822,,,2D_Material,,,BN,BN,2.5,,,
Systematic_Generation,,,h-BN_3L,,P63/mmc,,,,6.66,,,,3 layer(s),2D_005823,,,2D_Material,,,BN,BN,2.5,,,
Systematic_Generation,,,h-BN_4L,,P63/mmc,,,,6.66,,,,4 layer(s),2D_005824,,,2D_Material,,,BN,BN,2.5,,,
Systematic_Generation,,,h-BN_5L,,P63/mmc,,,,6.66,,,,5 layer(s),2D_005825,,,2D_Material,,,BN,BN,2.5,,,
Systematic_Generation,,,h-BN_fewL,,P63/mmc,,,,6.66,,,,few layer(s),2D_005826,,,2D_Material,,,BN,BN,2.5,,,
Systematic_Generation,,,h-BN_multiL,,P63/mmc,,,,6.66,,,,multi layer(s),2D_005827,,,2D_Material,,,BN,BN,2.5,,,
Systematic_Generation,,,Phosphorene_1L,,Pmna,,,,4.38,,,,1 layer(s),2D_005828,,,2D_Material,,,P,P,3.31,,,
Systematic_Generation,,,Phosphorene_2L,,Pmna,,,,4.38,,,,2 layer(s),2D_005829,,,2D_Material,,,P,P,3.31,,,
Systematic_Generation,,,Phosphorene_3L,,Pmna,,,,4.38,,,,3 layer(s),2D_005830,,,2D_Material,,,P,P,3.31,,,
Systematic_Generation,,,Phosphorene_4L,,Pmna,,,,4.38,,,,4 layer(s),2D_005831,,,2D_Material,,,P,P,3.31,,,
Systematic_Generation,,,Phosphorene_5L,,Pmna,,,,4.38,,,,5 layer(s),2D_005832,,,2D_Material,,,P,P,3.31,,,
Systematic_Generation,,,Phosphorene_fewL,,Pmna,,,,4.38,,,,few layer(s),2D_005833,,,2D_Material,,,P,P,3.31,,,
Systematic_Generation,,,Phosphorene_multiL,,Pmna,,,,4.38,,,,multi layer(s),2D_005834,,,2D_Material,,,P,P,3.31,,,
Systematic_Generation,,,Silicene_1L,,P-3m1,,,,,,,,1 layer(s),2D_005835,,,2D_Material,,,Si,Si,3.86,,,
Systematic_Generation,,,Silicene_2L,,P-3m1,,,,,,,,2 layer(s),2D_005836,,,2D_Material,,,Si,Si,3.86,,,
Systematic_Generation,,,Silicene_3L,,P-3m1,,,,,,,,3 layer(s),2D_005837,,,2D_Material,,,Si,Si,3.86,,,
Systematic_Generation,,,Silicene_4L,,P-3m1,,,,,,,,4 layer(s),2D_005838,,,2D_Material,,,Si,Si,3.86,,,
Systematic_Generation,,,Silicene_5L,,P-3m1,,,,,,,,5 layer(s),2D_005839,,,2D_Material,,,Si,Si,3.86,,,
Systematic_Generation,,,Silicene_fewL,,P-3m1,,,,,,,,few layer(s),2D_005840,,,2D_Material,,,Si,Si,3.86,,,
Systematic_Generation,,,Silicene_multiL,,P-3m1,,,,,,,,multi layer(s),2D_005841,,,2D_Material,,,Si,Si,3.86,,,
Systematic_Generation,,,Germanene_1L,,P-3m1,,,,,,,,1 layer(s),2D_005842,,,2D_Material,,,Ge,Ge,4.02,,,
Systematic_Generation,,,Germanene_2L,,P-3m1,,,,,,,,2 layer(s),2D_005843,,,2D_Material,,,Ge,Ge,4.02,,,
Systematic_Generation,,,Germanene_3L,,P-3m1,,,,,,,,3 layer(s),2D_005844,,,2D_Material,,,Ge,Ge,4.02,,,
Systematic_Generation,,,Germanene_4L,,P-3m1,,,,,,,,4 layer(s),2D_005845,,,2D_Material,,,Ge,Ge,4.02,,,
Systematic_Generation,,,Germanene_5L,,P-3m1,,,,,,,,5 layer(s),2D_005846,,,2D_Material,,,Ge,Ge,4.02,,,
Systematic_Generation,,,Germanene_fewL,,P-3m1,,,,,,,,few layer(s),2D_005847,,,2D_Material,,,Ge,Ge,4.02,,,
Systematic_Generation,,,Germanene_multiL,,P-3m1,,,,,,,,multi layer(s),2D_005848,,,2D_Material,,,Ge,Ge,4.02,,,
Systematic_Generation,,,PE_Mn5k_PDI1.05,,,,,,,,,,,POLY_005849,5000,,Homopolymer,,1.05,{[]CC[]},PE,,,,
Systematic_Generation,,,PE_Mn5k_PDI1.1,,,,,,,,,,,POLY_005850,5000,,Homopolymer,,1.1,{[]CC[]},PE,,,,
Systematic_Generation,,,PE_Mn5k_PDI1.2,,,,,,,,,,,POLY_005851,5000,,Homopolymer,,1.2,{[]CC[]},PE,,,,
Systematic_Generation,,,PE_Mn5k_PDI1.5,,,,,,,,,,,POLY_005852,5000,,Homopolymer,,1.5,{[]CC[]},PE,,,,
Systematic_Generation,,,PE_Mn5k_PDI2.0,,,,,,,,,,,POLY_005853,5000,,Homopolymer,,2.0,{[]CC[]},PE,,,,
Systematic_Generation,,,PE_Mn5k_PDI2.5,,,,,,,,,,,POLY_005854,5000,,Homopolymer,,2.5,{[]CC[]},PE,,,,
Systematic_Generation,,,PE_Mn10k_PDI1.05,,,,,,,,,,,POLY_005855,10000,,Homopolymer,,1.05,{[]CC[]},PE,,,,
Systematic_Generation,,,PE_Mn10k_PDI1.1,,,,,,,,,,,POLY_005856,10000,,Homopolymer,,1.1,{[]CC[]},PE,,,,
Systematic_Generation,,,PE_Mn10k_PDI1.2,,,,,,,,,,,POLY_005857,10000,,Homopolymer,,1.2,{[]CC[]},PE,,,,
Systematic_Generation,,,PE_Mn10k_PDI1.5,,,,,,,,,,,POLY_005858,10000,,Homopolymer,,1.5,{[]CC[]},PE,,,,
Systematic_Generation,,,PE_Mn10k_PDI2.0,,,,,,,,,,,POLY_005859,10000,,Homopolymer,,2.0,{[]CC[]},PE,,,,
Systematic_Generation,,,PE_Mn10k_PDI2.5,,,,,,,,,,,POLY_005860,10000,,Homopolymer,,2.5,{[]CC[]},PE,,,,
Systematic_Generation,,,PE_Mn25k_PDI1.05,,,,,,,,,,,POLY_005861,25000,,Homopolymer,,1.05,{[]CC[]},PE,,,,
Systematic_Generation,,,PE_Mn25k_PDI1.1,,,,,,,,,,,POLY_005862,25000,,Homopolymer,,1.1,{[]CC[]},PE,,,,
Systematic_Generation,,,PE_Mn25k_PDI1.2,,,,,,,,,,,POLY_005863,25000,,Homopolymer,,1.2,{[]CC[]},PE,,,,
Systematic_Generation,,,PE_Mn25k_PDI1.5,,,,,,,,,,,POLY_005864,25000,,Homopolymer,,1.5,{[]CC[]},PE,,,,
Systematic_Generation,,,PE_Mn25k_PDI2.0,,,,,,,,,,,POLY_005865,25000,,Homopolymer,,2.0,{[]CC[]},PE,,,,
Systematic_Generation,,,PE_Mn25k_PDI2.5,,,,,,,,,,,POLY_005866,25000,,Homopolymer,,2.5,{[]CC[]},PE,,,,
Systematic_Generation,,,PE_Mn50k_PDI1.05,,,,,,,,,,,POLY_005867,50000,,Homopolymer,,1.05,{[]CC[]},PE,,,,
Systematic_Generation,,,PE_Mn50k_PDI1.1,,,,,,,,,,,POLY_005868,50000,,Homopolymer,,1.1,{[]CC[]},PE,,,,
Systematic_Generation,,,PE_Mn50k_PDI1.2,,,,,,,,,,,POLY_005869,50000,,Homopolymer,,1.2,{[]CC[]},PE,,,,
Systematic_Generation,,,PE_Mn50k_PDI1.5,,,,,,,,,,,POLY_005870,50000,,Homopolymer,,1.5,{[]CC[]},PE,,,,
Systematic_Generation,,,PE_Mn50k_PDI2.0,,,,,,,,,,,POLY_005871,50000,,Homopolymer,,2.0,{[]CC[]},PE,,,,
Systematic_Generation,,,PE_Mn50k_PDI2.5,,,,,,,,,,,POLY_005872,50000,,Homopolymer,,2.5,{[]CC[]},PE,,,,
Systematic_Generation,,,PE_Mn75k_PDI1.05,,,,,,,,,,,POLY_005873,75000,,Homopolymer,,1.05,{[]CC[]},PE,,,,
Systematic_Generation,,,PE_Mn75k_PDI1.1,,,,,,,,,,,POLY_005874,75000,,Homopolymer,,1.1,{[]CC[]},PE,,,,
Systematic_Generation,,,PE_Mn75k_PDI1.2,,,,,,,,,,,POLY_005875,75000,,Homopolymer,,1.2,{[]CC[]},PE,,,,
Systematic_Generation,,,PE_Mn75k_PDI1.5,,,,,,,,,,,POLY_005876,75000,,Homopolymer,,1.5,{[]CC[]},PE,,,,
Systematic_Generation,,,PE_Mn75k_PDI2.0,,,,,,,,,,,POLY_005877,75000,,Homopolymer,,2.0,{[]CC[]},PE,,,,
Systematic_Generation,,,PE_Mn75k_PDI2.5,,,,,,,,,,,POLY_005878,75000,,Homopolymer,,2.5,{[]CC[]},PE,,,,
Systematic_Generation,,,PE_Mn100k_PDI1.05,,,,,,,,,,,POLY_005879,100000,,Homopolymer,,1.05,{[]CC[]},PE,,,,
Systematic_Generation,,,PE_Mn100k_PDI1.1,,,,,,,,,,,POLY_005880,100000,,Homopolymer,,1.1,{[]CC[]},PE,,,,
Systematic_Generation,,,PE_Mn100k_PDI1.2,,,,,,,,,,,POLY_005881,100000,,Homopolymer,,1.2,{[]CC[]},PE,,,,
Systematic_Generation,,,PE_Mn100k_PDI1.5,,,,,,,,,,,POLY_005882,100000,,Homopolymer,,1.5,{[]CC[]},PE,,,,
Systematic_Generation,,,PE_Mn100k_PDI2.0,,,,,,,,,,,POLY_005883,100000,,Homopolymer,,2.0,{[]CC[]},PE,,,,
Systematic_Generation,,,PE_Mn100k_PDI2.5,,,,,,,,,,,POLY_005884,100000,,Homopolymer,,2.5,{[]CC[]},PE,,,,
Systematic_Generation,,,PE_Mn150k_PDI1.05,,,,,,,,,,,POLY_005885,150000,,Homopolymer,,1.05,{[]CC[]},PE,,,,
Systematic_Generation,,,PE_Mn150k_PDI1.1,,,,,,,,,,,POLY_005886,150000,,Homopolymer,,1.1,{[]CC[]},PE,,,,
Systematic_Generation,,,PE_Mn150k_PDI1.2,,,,,,,,,,,POLY_005887,150000,,Homopolymer,,1.2,{[]CC[]},PE,,,,
Systematic_Generation,,,PE_Mn150k_PDI1.5,,,,,,,,,,,POLY_005888,150000,,Homopolymer,,1.5,{[]CC[]},PE,,,,
Systematic_Generation,,,PE_Mn150k_PDI2.0,,,,,,,,,,,POLY_005889,150000,,Homopolymer,,2.0,{[]CC[]},PE,,,,
Systematic_Generation,,,PE_Mn150k_PDI2.5,,,,,,,,,,,POLY_005890,150000,,Homopolymer,,2.5,{[]CC[]},PE,,,,
Systematic_Generation,,,PE_Mn200k_PDI1.05,,,,,,,,,,,POLY_005891,200000,,Homopolymer,,1.05,{[]CC[]},PE,,,,
Systematic_Generation,,,PE_Mn200k_PDI1.1,,,,,,,,,,,POLY_005892,200000,,Homopolymer,,1.1,{[]CC[]},PE,,,,
Systematic_Generation,,,PE_Mn200k_PDI1.2,,,,,,,,,,,POLY_005893,200000,,Homopolymer,,1.2,{[]CC[]},PE,,,,
Systematic_Generation,,,PE_Mn200k_PDI1.5,,,,,,,,,,,POLY_005894,200000,,Homopolymer,,1.5,{[]CC[]},PE,,,,
Systematic_Generation,,,PE_Mn200k_PDI2.0,,,,,,,,,,,POLY_005895,200000,,Homopolymer,,2.0,{[]CC[]},PE,,,,
Systematic_Generation,,,PE_Mn200k_PDI2.5,,,,,,,,,,,POLY_005896,200000,,Homopolymer,,2.5,{[]CC[]},PE,,,,
Systematic_Generation,,,PE_Mn300k_PDI1.05,,,,,,,,,,,POLY_005897,300000,,Homopolymer,,1.05,{[]CC[]},PE,,,,
Systematic_Generation,,,PE_Mn300k_PDI1.1,,,,,,,,,,,POLY_005898,300000,,Homopolymer,,1.1,{[]CC[]},PE,,,,
Systematic_Generation,,,PE_Mn300k_PDI1.2,,,,,,,,,,,POLY_005899,300000,,Homopolymer,,1.2,{[]CC[]},PE,,,,
Systematic_Generation,,,PE_Mn300k_PDI1.5,,,,,,,,,,,POLY_005900,300000,,Homopolymer,,1.5,{[]CC[]},PE,,,,
Systematic_Generation,,,PE_Mn300k_PDI2.0,,,,,,,,,,,POLY_005901,300000,,Homopolymer,,2.0,{[]CC[]},PE,,,,
Systematic_Generation,,,PE_Mn300k_PDI2.5,,,,,,,,,,,POLY_005902,300000,,Homopolymer,,2.5,{[]CC[]},PE,,,,
Systematic_Generation,,,PE_Mn500k_PDI1.05,,,,,,,,,,,POLY_005903,500000,,Homopolymer,,1.05,{[]CC[]},PE,,,,
Systematic_Generation,,,PE_Mn500k_PDI1.1,,,,,,,,,,,POLY_005904,500000,,Homopolymer,,1.1,{[]CC[]},PE,,,,
Systematic_Generation,,,PE_Mn500k_PDI1.2,,,,,,,,,,,POLY_005905,500000,,Homopolymer,,1.2,{[]CC[]},PE,,,,
Systematic_Generation,,,PE_Mn500k_PDI1.5,,,,,,,,,,,POLY_005906,500000,,Homopolymer,,1.5,{[]CC[]},PE,,,,
Systematic_Generation,,,PE_Mn500k_PDI2.0,,,,,,,,,,,POLY_005907,500000,,Homopolymer,,2.0,{[]CC[]},PE,,,,
Systematic_Generation,,,PE_Mn500k_PDI2.5,,,,,,,,,,,POLY_005908,500000,,Homopolymer,,2.5,{[]CC[]},PE,,,,
Systematic_Generation,,,PE_Mn750k_PDI1.05,,,,,,,,,,,POLY_005909,750000,,Homopolymer,,1.05,{[]CC[]},PE,,,,
Systematic_Generation,,,PE_Mn750k_PDI1.1,,,,,,,,,,,POLY_005910,750000,,Homopolymer,,1.1,{[]CC[]},PE,,,,
Systematic_Generation,,,PE_Mn750k_PDI1.2,,,,,,,,,,,POLY_005911,750000,,Homopolymer,,1.2,{[]CC[]},PE,,,,
Systematic_Generation,,,PE_Mn750k_PDI1.5,,,,,,,,,,,POLY_005912,750000,,Homopolymer,,1.5,{[]CC[]},PE,,,,
Systematic_Generation,,,PE_Mn750k_PDI2.0,,,,,,,,,,,POLY_005913,750000,,Homopolymer,,2.0,{[]CC[]},PE,,,,
Systematic_Generation,,,PE_Mn750k_PDI2.5,,,,,,,,,,,POLY_005914,750000,,Homopolymer,,2.5,{[]CC[]},PE,,,,
Systematic_Generation,,,PE_Mn1000k_PDI1.05,,,,,,,,,,,POLY_005915,1000000,,Homopolymer,,1.05,{[]CC[]},PE,,,,
Systematic_Generation,,,PE_Mn1000k_PDI1.1,,,,,,,,,,,POLY_005916,1000000,,Homopolymer,,1.1,{[]CC[]},PE,,,,
Systematic_Generation,,,PE_Mn1000k_PDI1.2,,,,,,,,,,,POLY_005917,1000000,,Homopolymer,,1.2,{[]CC[]},PE,,,,
Systematic_Generation,,,PE_Mn1000k_PDI1.5,,,,,,,,,,,POLY_005918,1000000,,Homopolymer,,1.5,{[]CC[]},PE,,,,
Systematic_Generation,,,PE_Mn1000k_PDI2.0,,,,,,,,,,,POLY_005919,1000000,,Homopolymer,,2.0,{[]CC[]},PE,,,,
Systematic_Generation,,,PE_Mn1000k_PDI2.5,,,,,,,,,,,POLY_005920,1000000,,Homopolymer,,2.5,{[]CC[]},PE,,,,
Systematic_Generation,,,PP_Mn5k_PDI1.05,,,,,,,,,,,POLY_005921,5000,,Homopolymer,,1.05,{[]CC(C)[]},PP,,,,
Systematic_Generation,,,PP_Mn5k_PDI1.1,,,,,,,,,,,POLY_005922,5000,,Homopolymer,,1.1,{[]CC(C)[]},PP,,,,
Systematic_Generation,,,PP_Mn5k_PDI1.2,,,,,,,,,,,POLY_005923,5000,,Homopolymer,,1.2,{[]CC(C)[]},PP,,,,
Systematic_Generation,,,PP_Mn5k_PDI1.5,,,,,,,,,,,POLY_005924,5000,,Homopolymer,,1.5,{[]CC(C)[]},PP,,,,
Systematic_Generation,,,PP_Mn5k_PDI2.0,,,,,,,,,,,POLY_005925,5000,,Homopolymer,,2.0,{[]CC(C)[]},PP,,,,
Systematic_Generation,,,PP_Mn5k_PDI2.5,,,,,,,,,,,POLY_005926,5000,,Homopolymer,,2.5,{[]CC(C)[]},PP,,,,
Systematic_Generation,,,PP_Mn10k_PDI1.05,,,,,,,,,,,POLY_005927,10000,,Homopolymer,,1.05,{[]CC(C)[]},PP,,,,
Systematic_Generation,,,PP_Mn10k_PDI1.1,,,,,,,,,,,POLY_005928,10000,,Homopolymer,,1.1,{[]CC(C)[]},PP,,,,
Systematic_Generation,,,PP_Mn10k_PDI1.2,,,,,,,,,,,POLY_005929,10000,,Homopolymer,,1.2,{[]CC(C)[]},PP,,,,
Systematic_Generation,,,PP_Mn10k_PDI1.5,,,,,,,,,,,POLY_005930,10000,,Homopolymer,,1.5,{[]CC(C)[]},PP,,,,
Systematic_Generation,,,PP_Mn10k_PDI2.0,,,,,,,,,,,POLY_005931,10000,,Homopolymer,,2.0,{[]CC(C)[]},PP,,,,
Systematic_Generation,,,PP_Mn10k_PDI2.5,,,,,,,,,,,POLY_005932,10000,,Homopolymer,,2.5,{[]CC(C)[]},PP,,,,
Systematic_Generation,,,PP_Mn25k_PDI1.05,,,,,,,,,,,POLY_005933,25000,,Homopolymer,,1.05,{[]CC(C)[]},PP,,,,
Systematic_Generation,,,PP_Mn25k_PDI1.1,,,,,,,,,,,POLY_005934,25000,,Homopolymer,,1.1,{[]CC(C)[]},PP,,,,
Systematic_Generation,,,PP_Mn25k_PDI1.2,,,,,,,,,,,POLY_005935,25000,,Homopolymer,,1.2,{[]CC(C)[]},PP,,,,
Systematic_Generation,,,PP_Mn25k_PDI1.5,,,,,,,,,,,POLY_005936,25000,,Homopolymer,,1.5,{[]CC(C)[]},PP,,,,
Systematic_Generation,,,PP_Mn25k_PDI2.0,,,,,,,,,,,POLY_005937,25000,,Homopolymer,,2.0,{[]CC(C)[]},PP,,,,
Systematic_Generation,,,PP_Mn25k_PDI2.5,,,,,,,,,,,POLY_005938,25000,,Homopolymer,,2.5,{[]CC(C)[]},PP,,,,
Systematic_Generation,,,PP_Mn50k_PDI1.05,,,,,,,,,,,POLY_005939,50000,,Homopolymer,,1.05,{[]CC(C)[]},PP,,,,
Systematic_Generation,,,PP_Mn50k_PDI1.1,,,,,,,,,,,POLY_005940,50000,,Homopolymer,,1.1,{[]CC(C)[]},PP,,,,
Systematic_Generation,,,PP_Mn50k_PDI1.2,,,,,,,,,,,POLY_005941,50000,,Homopolymer,,1.2,{[]CC(C)[]},PP,,,,
Systematic_Generation,,,PP_Mn50k_PDI1.5,,,,,,,,,,,POLY_005942,50000,,Homopolymer,,1.5,{[]CC(C)[]},PP,,,,
Systematic_Generation,,,PP_Mn50k_PDI2.0,,,,,,,,,,,POLY_005943,50000,,Homopolymer,,2.0,{[]CC(C)[]},PP,,,,
Systematic_Generation,,,PP_Mn50k_PDI2.5,,,,,,,,,,,POLY_005944,50000,,Homopolymer,,2.5,{[]CC(C)[]},PP,,,,
Systematic_Generation,,,PP_Mn75k_PDI1.05,,,,,,,,,,,POLY_005945,75000,,Homopolymer,,1.05,{[]CC(C)[]},PP,,,,
Systematic_Generation,,,PP_Mn75k_PDI1.1,,,,,,,,,,,POLY_005946,75000,,Homopolymer,,1.1,{[]CC(C)[]},PP,,,,
Systematic_Generation,,,PP_Mn75k_PDI1.2,,,,,,,,,,,POLY_005947,75000,,Homopolymer,,1.2,{[]CC(C)[]},PP,,,,
Systematic_Generation,,,PP_Mn75k_PDI1.5,,,,,,,,,,,POLY_005948,75000,,Homopolymer,,1.5,{[]CC(C)[]},PP,,,,
Systematic_Generation,,,PP_Mn75k_PDI2.0,,,,,,,,,,,POLY_005949,75000,,Homopolymer,,2.0,{[]CC(C)[]},PP,,,,
Systematic_Generation,,,PP_Mn75k_PDI2.5,,,,,,,,,,,POLY_005950,75000,,Homopolymer,,2.5,{[]CC(C)[]},PP,,,,
Systematic_Generation,,,PP_Mn100k_PDI1.05,,,,,,,,,,,POLY_005951,100000,,Homopolymer,,1.05,{[]CC(C)[]},PP,,,,
Systematic_Generation,,,PP_Mn100k_PDI1.1,,,,,,,,,,,POLY_005952,100000,,Homopolymer,,1.1,{[]CC(C)[]},PP,,,,
Systematic_Generation,,,PP_Mn100k_PDI1.2,,,,,,,,,,,POLY_005953,100000,,Homopolymer,,1.2,{[]CC(C)[]},PP,,,,
Systematic_Generation,,,PP_Mn100k_PDI1.5,,,,,,,,,,,POLY_005954,100000,,Homopolymer,,1.5,{[]CC(C)[]},PP,,,,
Systematic_Generation,,,PP_Mn100k_PDI2.0,,,,,,,,,,,POLY_005955,100000,,Homopolymer,,2.0,{[]CC(C)[]},PP,,,,
Systematic_Generation,,,PP_Mn100k_PDI2.5,,,,,,,,,,,POLY_005956,100000,,Homopolymer,,2.5,{[]CC(C)[]},PP,,,,
Systematic_Generation,,,PP_Mn150k_PDI1.05,,,,,,,,,,,POLY_005957,150000,,Homopolymer,,1.05,{[]CC(C)[]},PP,,,,
Systematic_Generation,,,PP_Mn150k_PDI1.1,,,,,,,,,,,POLY_005958,150000,,Homopolymer,,1.1,{[]CC(C)[]},PP,,,,
Systematic_Generation,,,PP_Mn150k_PDI1.2,,,,,,,,,,,POLY_005959,150000,,Homopolymer,,1.2,{[]CC(C)[]},PP,,,,
Systematic_Generation,,,PP_Mn150k_PDI1.5,,,,,,,,,,,POLY_005960,150000,,Homopolymer,,1.5,{[]CC(C)[]},PP,,,,
Systematic_Generation,,,PP_Mn150k_PDI2.0,,,,,,,,,,,POLY_005961,150000,,Homopolymer,,2.0,{[]CC(C)[]},PP,,,,
Systematic_Generation,,,PP_Mn150k_PDI2.5,,,,,,,,,,,POLY_005962,150000,,Homopolymer,,2.5,{[]CC(C)[]},PP,,,,
Systematic_Generation,,,PP_Mn200k_PDI1.05,,,,,,,,,,,POLY_005963,200000,,Homopolymer,,1.05,{[]CC(C)[]},PP,,,,
Systematic_Generation,,,PP_Mn200k_PDI1.1,,,,,,,,,,,POLY_005964,200000,,Homopolymer,,1.1,{[]CC(C)[]},PP,,,,
Systematic_Generation,,,PP_Mn200k_PDI1.2,,,,,,,,,,,POLY_005965,200000,,Homopolymer,,1.2,{[]CC(C)[]},PP,,,,
Systematic_Generation,,,PP_Mn200k_PDI1.5,,,,,,,,,,,POLY_005966,200000,,Homopolymer,,1.5,{[]CC(C)[]},PP,,,,
Systematic_Generation,,,PP_Mn200k_PDI2.0,,,,,,,,,,,POLY_005967,200000,,Homopolymer,,2.0,{[]CC(C)[]},PP,,,,
Systematic_Generation,,,PP_Mn200k_PDI2.5,,,,,,,,,,,POLY_005968,200000,,Homopolymer,,2.5,{[]CC(C)[]},PP,,,,
Systematic_Generation,,,PP_Mn300k_PDI1.05,,,,,,,,,,,POLY_005969,300000,,Homopolymer,,1.05,{[]CC(C)[]},PP,,,,
Systematic_Generation,,,PP_Mn300k_PDI1.1,,,,,,,,,,,POLY_005970,300000,,Homopolymer,,1.1,{[]CC(C)[]},PP,,,,
Systematic_Generation,,,PP_Mn300k_PDI1.2,,,,,,,,,,,POLY_005971,300000,,Homopolymer,,1.2,{[]CC(C)[]},PP,,,,
Systematic_Generation,,,PP_Mn300k_PDI1.5,,,,,,,,,,,POLY_005972,300000,,Homopolymer,,1.5,{[]CC(C)[]},PP,,,,
Systematic_Generation,,,PP_Mn300k_PDI2.0,,,,,,,,,,,POLY_005973,300000,,Homopolymer,,2.0,{[]CC(C)[]},PP,,,,
Systematic_Generation,,,PP_Mn300k_PDI2.5,,,,,,,,,,,POLY_005974,300000,,Homopolymer,,2.5,{[]CC(C)[]},PP,,,,
Systematic_Generation,,,PP_Mn500k_PDI1.05,,,,,,,,,,,POLY_005975,500000,,Homopolymer,,1.05,{[]CC(C)[]},PP,,,,
Systematic_Generation,,,PP_Mn500k_PDI1.1,,,,,,,,,,,POLY_005976,500000,,Homopolymer,,1.1,{[]CC(C)[]},PP,,,,
Systematic_Generation,,,PP_Mn500k_PDI1.2,,,,,,,,,,,POLY_005977,500000,,Homopolymer,,1.2,{[]CC(C)[]},PP,,,,
Systematic_Generation,,,PP_Mn500k_PDI1.5,,,,,,,,,,,POLY_005978,500000,,Homopolymer,,1.5,{[]CC(C)[]},PP,,,,