source,n_elements,doping_concentration,name,termination,space_group,doping_level,volume_fraction,weight_percent,lattice_c,temperature,reinforcement,matrix,layers,material_id,molecular_weight,deposition_method,type,lattice_b,pdi,formula,composition,lattice_a,thickness_nm,dopant,substrate
Systematic_Generation,,,Al40W60,,Im-3m,,,,,,,,,ALLOY_001855,,,Binary_Alloy,,,Al_0.40W_0.60,"Al:40%, W:60%",3.645,,,
Systematic_Generation,,,Al50W50,,Im-3m,,,,,,,,,ALLOY_001856,,,Binary_Alloy,,,Al_0.50W_0.50,"Al:50%, W:50%",3.746,,,
Systematic_Generation,,,Al60W40,,P63/mmc,,,,,,,,,ALLOY_001857,,,Binary_Alloy,,,Al_0.60W_0.40,"Al:60%, W:40%",4.42,,,
Systematic_Generation,,,Al70W30,,Im-3m,,,,,,,,,ALLOY_001858,,,Binary_Alloy,,,Al_0.70W_0.30,"Al:70%, W:30%",2.609,,,
Systematic_Generation,,,Al80W20,,Fm-3m,,,,,,,,,ALLOY_001859,,,Binary_Alloy,,,Al_0.80W_0.20,"Al:80%, W:20%",2.535,,,
Systematic_Generation,,,Al90W10,,Fm-3m,,,,,,,,,ALLOY_001860,,,Binary_Alloy,,,Al_0.90W_0.10,"Al:90%, W:10%",3.172,,,
Systematic_Generation,,,Al10V90,,Im-3m,,,,,,,,,ALLOY_001861,,,Binary_Alloy,,,Al_0.10V_0.90,"Al:10%, V:90%",3.175,,,
Systematic_Generation,,,Al20V80,,Pm-3m,,,,,,,,,ALLOY_001862,,,Binary_Alloy,,,Al_0.20V_0.80,"Al:20%, V:80%",3.186,,,
Systematic_Generation,,,Al30V70,,Im-3m,,,,,,,,,ALLOY_001863,,,Binary_Alloy,,,Al_0.30V_0.70,"Al:30%, V:70%",3.9,,,
Systematic_Generation,,,Al40V60,,Fm-3m,,,,,,,,,ALLOY_001864,,,Binary_Alloy,,,Al_0.40V_0.60,"Al:40%, V:60%",3.816,,,
Systematic_Generation,,,Al50V50,,P63/mmc,,,,,,,,,ALLOY_001865,,,Binary_Alloy,,,Al_0.50V_0.50,"Al:50%, V:50%",3.288,,,
Systematic_Generation,,,Al60V40,,Im-3m,,,,,,,,,ALLOY_001866,,,Binary_Alloy,,,Al_0.60V_0.40,"Al:60%, V:40%",3.85,,,
Systematic_Generation,,,Al70V30,,P63/mmc,,,,,,,,,ALLOY_001867,,,Binary_Alloy,,,Al_0.70V_0.30,"Al:70%, V:30%",2.811,,,
Systematic_Generation,,,Al80V20,,Fm-3m,,,,,,,,,ALLOY_001868,,,Binary_Alloy,,,Al_0.80V_0.20,"Al:80%, V:20%",3.119,,,
Systematic_Generation,,,Al90V10,,P63/mmc,,,,,,,,,ALLOY_001869,,,Binary_Alloy,,,Al_0.90V_0.10,"Al:90%, V:10%",3.408,,,
Systematic_Generation,,,Al10Nb90,,Fm-3m,,,,,,,,,ALLOY_001870,,,Binary_Alloy,,,Al_0.10Nb_0.90,"Al:10%, Nb:90%",2.926,,,
Systematic_Generation,,,Al20Nb80,,P63/mmc,,,,,,,,,ALLOY_001871,,,Binary_Alloy,,,Al_0.20Nb_0.80,"Al:20%, Nb:80%",4.348,,,
Systematic_Generation,,,Al30Nb70,,Fm-3m,,,,,,,,,ALLOY_001872,,,Binary_Alloy,,,Al_0.30Nb_0.70,"Al:30%, Nb:70%",2.708,,,
Systematic_Generation,,,Al40Nb60,,Im-3m,,,,,,,,,ALLOY_001873,,,Binary_Alloy,,,Al_0.40Nb_0.60,"Al:40%, Nb:60%",2.508,,,
Systematic_Generation,,,Al50Nb50,,P63/mmc,,,,,,,,,ALLOY_001874,,,Binary_Alloy,,,Al_0.50Nb_0.50,"Al:50%, Nb:50%",2.781,,,
Systematic_Generation,,,Al60Nb40,,P63/mmc,,,,,,,,,ALLOY_001875,,,Binary_Alloy,,,Al_0.60Nb_0.40,"Al:60%, Nb:40%",4.251,,,
Systematic_Generation,,,Al70Nb30,,P63/mmc,,,,,,,,,ALLOY_001876,,,Binary_Alloy,,,Al_0.70Nb_0.30,"Al:70%, Nb:30%",2.873,,,
Systematic_Generation,,,Al80Nb20,,Im-3m,,,,,,,,,ALLOY_001877,,,Binary_Alloy,,,Al_0.80Nb_0.20,"Al:80%, Nb:20%",3.859,,,
Systematic_Generation,,,Al90Nb10,,Fm-3m,,,,,,,,,ALLOY_001878,,,Binary_Alloy,,,Al_0.90Nb_0.10,"Al:90%, Nb:10%",3.349,,,
Systematic_Generation,,,Cu10Fe90,,P63/mmc,,,,,,,,,ALLOY_001879,,,Binary_Alloy,,,Cu_0.10Fe_0.90,"Cu:10%, Fe:90%",3.033,,,
Systematic_Generation,,,Cu20Fe80,,Im-3m,,,,,,,,,ALLOY_001880,,,Binary_Alloy,,,Cu_0.20Fe_0.80,"Cu:20%, Fe:80%",2.708,,,
Systematic_Generation,,,Cu30Fe70,,Im-3m,,,,,,,,,ALLOY_001881,,,Binary_Alloy,,,Cu_0.30Fe_0.70,"Cu:30%, Fe:70%",3.589,,,
Systematic_Generation,,,Cu40Fe60,,Fm-3m,,,,,,,,,ALLOY_001882,,,Binary_Alloy,,,Cu_0.40Fe_0.60,"Cu:40%, Fe:60%",3.217,,,
Systematic_Generation,,,Cu50Fe50,,Pm-3m,,,,,,,,,ALLOY_001883,,,Binary_Alloy,,,Cu_0.50Fe_0.50,"Cu:50%, Fe:50%",3.812,,,
Systematic_Generation,,,Cu60Fe40,,Pm-3m,,,,,,,,,ALLOY_001884,,,Binary_Alloy,,,Cu_0.60Fe_0.40,"Cu:60%, Fe:40%",3.307,,,
Systematic_Generation,,,Cu70Fe30,,Pm-3m,,,,,,,,,ALLOY_001885,,,Binary_Alloy,,,Cu_0.70Fe_0.30,"Cu:70%, Fe:30%",2.825,,,
Systematic_Generation,,,Cu80Fe20,,P63/mmc,,,,,,,,,ALLOY_001886,,,Binary_Alloy,,,Cu_0.80Fe_0.20,"Cu:80%, Fe:20%",4.048,,,
Systematic_Generation,,,Cu90Fe10,,Im-3m,,,,,,,,,ALLOY_001887,,,Binary_Alloy,,,Cu_0.90Fe_0.10,"Cu:90%, Fe:10%",3.052,,,
Systematic_Generation,,,Cu10Ni90,,P63/mmc,,,,,,,,,ALLOY_001888,,,Binary_Alloy,,,Cu_0.10Ni_0.90,"Cu:10%, Ni:90%",3.777,,,
Systematic_Generation,,,Cu20Ni80,,P63/mmc,,,,,,,,,ALLOY_001889,,,Binary_Alloy,,,Cu_0.20Ni_0.80,"Cu:20%, Ni:80%",2.58,,,
Systematic_Generation,,,Cu30Ni70,,P63/mmc,,,,,,,,,ALLOY_001890,,,Binary_Alloy,,,Cu_0.30Ni_0.70,"Cu:30%, Ni:70%",4.039,,,
Systematic_Generation,,,Cu40Ni60,,Pm-3m,,,,,,,,,ALLOY_001891,,,Binary_Alloy,,,Cu_0.40Ni_0.60,"Cu:40%, Ni:60%",3.606,,,
Systematic_Generation,,,Cu50Ni50,,P63/mmc,,,,,,,,,ALLOY_001892,,,Binary_Alloy,,,Cu_0.50Ni_0.50,"Cu:50%, Ni:50%",4.093,,,
Systematic_Generation,,,Cu60Ni40,,Pm-3m,,,,,,,,,ALLOY_001893,,,Binary_Alloy,,,Cu_0.60Ni_0.40,"Cu:60%, Ni:40%",3.441,,,
Systematic_Generation,,,Cu70Ni30,,Im-3m,,,,,,,,,ALLOY_001894,,,Binary_Alloy,,,Cu_0.70Ni_0.30,"Cu:70%, Ni:30%",4.311,,,
Systematic_Generation,,,Cu80Ni20,,P63/mmc,,,,,,,,,ALLOY_001895,,,Binary_Alloy,,,Cu_0.80Ni_0.20,"Cu:80%, Ni:20%",2.966,,,
Systematic_Generation,,,Cu90Ni10,,Im-3m,,,,,,,,,ALLOY_001896,,,Binary_Alloy,,,Cu_0.90Ni_0.10,"Cu:90%, Ni:10%",4.415,,,
Systematic_Generation,,,Cu10Ti90,,Pm-3m,,,,,,,,,ALLOY_001897,,,Binary_Alloy,,,Cu_0.10Ti_0.90,"Cu:10%, Ti:90%",3.473,,,
Systematic_Generation,,,Cu20Ti80,,P63/mmc,,,,,,,,,ALLOY_001898,,,Binary_Alloy,,,Cu_0.20Ti_0.80,"Cu:20%, Ti:80%",3.254,,,
Systematic_Generation,,,Cu30Ti70,,Fm-3m,,,,,,,,,ALLOY_001899,,,Binary_Alloy,,,Cu_0.30Ti_0.70,"Cu:30%, Ti:70%",2.593,,,
Systematic_Generation,,,Cu40Ti60,,Fm-3m,,,,,,,,,ALLOY_001900,,,Binary_Alloy,,,Cu_0.40Ti_0.60,"Cu:40%, Ti:60%",2.673,,,
Systematic_Generation,,,Cu50Ti50,,Im-3m,,,,,,,,,ALLOY_001901,,,Binary_Alloy,,,Cu_0.50Ti_0.50,"Cu:50%, Ti:50%",3.783,,,
Systematic_Generation,,,Cu60Ti40,,Pm-3m,,,,,,,,,ALLOY_001902,,,Binary_Alloy,,,Cu_0.60Ti_0.40,"Cu:60%, Ti:40%",2.743,,,
Systematic_Generation,,,Cu70Ti30,,P63/mmc,,,,,,,,,ALLOY_001903,,,Binary_Alloy,,,Cu_0.70Ti_0.30,"Cu:70%, Ti:30%",2.923,,,
Systematic_Generation,,,Cu80Ti20,,Im-3m,,,,,,,,,ALLOY_001904,,,Binary_Alloy,,,Cu_0.80Ti_0.20,"Cu:80%, Ti:20%",4.234,,,
Systematic_Generation,,,Cu90Ti10,,Pm-3m,,,,,,,,,ALLOY_001905,,,Binary_Alloy,,,Cu_0.90Ti_0.10,"Cu:90%, Ti:10%",2.51,,,
Systematic_Generation,,,Cu10Cr90,,Fm-3m,,,,,,,,,ALLOY_001906,,,Binary_Alloy,,,Cu_0.10Cr_0.90,"Cu:10%, Cr:90%",4.007,,,
Systematic_Generation,,,Cu20Cr80,,Fm-3m,,,,,,,,,ALLOY_001907,,,Binary_Alloy,,,Cu_0.20Cr_0.80,"Cu:20%, Cr:80%",2.512,,,
Systematic_Generation,,,Cu30Cr70,,Fm-3m,,,,,,,,,ALLOY_001908,,,Binary_Alloy,,,Cu_0.30Cr_0.70,"Cu:30%, Cr:70%",2.967,,,
Systematic_Generation,,,Cu40Cr60,,Fm-3m,,,,,,,,,ALLOY_001909,,,Binary_Alloy,,,Cu_0.40Cr_0.60,"Cu:40%, Cr:60%",3.89,,,
Systematic_Generation,,,Cu50Cr50,,P63/mmc,,,,,,,,,ALLOY_001910,,,Binary_Alloy,,,Cu_0.50Cr_0.50,"Cu:50%, Cr:50%",4.486,,,
Systematic_Generation,,,Cu60Cr40,,Im-3m,,,,,,,,,ALLOY_001911,,,Binary_Alloy,,,Cu_0.60Cr_0.40,"Cu:60%, Cr:40%",3.601,,,
Systematic_Generation,,,Cu70Cr30,,Im-3m,,,,,,,,,ALLOY_001912,,,Binary_Alloy,,,Cu_0.70Cr_0.30,"Cu:70%, Cr:30%",3.1,,,
Systematic_Generation,,,Cu80Cr20,,P63/mmc,,,,,,,,,ALLOY_001913,,,Binary_Alloy,,,Cu_0.80Cr_0.20,"Cu:80%, Cr:20%",3.53,,,
Systematic_Generation,,,Cu90Cr10,,Im-3m,,,,,,,,,ALLOY_001914,,,Binary_Alloy,,,Cu_0.90Cr_0.10,"Cu:90%, Cr:10%",3.097,,,
Systematic_Generation,,,Cu10Co90,,Pm-3m,,,,,,,,,ALLOY_001915,,,Binary_Alloy,,,Cu_0.10Co_0.90,"Cu:10%, Co:90%",3.457,,,
Systematic_Generation,,,Cu20Co80,,P63/mmc,,,,,,,,,ALLOY_001916,,,Binary_Alloy,,,Cu_0.20Co_0.80,"Cu:20%, Co:80%",4.201,,,
Systematic_Generation,,,Cu30Co70,,P63/mmc,,,,,,,,,ALLOY_001917,,,Binary_Alloy,,,Cu_0.30Co_0.70,"Cu:30%, Co:70%",3.925,,,
Systematic_Generation,,,Cu40Co60,,Pm-3m,,,,,,,,,ALLOY_001918,,,Binary_Alloy,,,Cu_0.40Co_0.60,"Cu:40%, Co:60%",3.092,,,
Systematic_Generation,,,Cu50Co50,,P63/mmc,,,,,,,,,ALLOY_001919,,,Binary_Alloy,,,Cu_0.50Co_0.50,"Cu:50%, Co:50%",3.029,,,
Systematic_Generation,,,Cu60Co40,,Pm-3m,,,,,,,,,ALLOY_001920,,,Binary_Alloy,,,Cu_0.60Co_0.40,"Cu:60%, Co:40%",3.867,,,
Systematic_Generation,,,Cu70Co30,,Fm-3m,,,,,,,,,ALLOY_001921,,,Binary_Alloy,,,Cu_0.70Co_0.30,"Cu:70%, Co:30%",4.169,,,
Systematic_Generation,,,Cu80Co20,,Fm-3m,,,,,,,,,ALLOY_001922,,,Binary_Alloy,,,Cu_0.80Co_0.20,"Cu:80%, Co:20%",2.523,,,
Systematic_Generation,,,Cu90Co10,,Pm-3m,,,,,,,,,ALLOY_001923,,,Binary_Alloy,,,Cu_0.90Co_0.10,"Cu:90%, Co:10%",2.837,,,
Systematic_Generation,,,Cu10Mn90,,Pm-3m,,,,,,,,,ALLOY_001924,,,Binary_Alloy,,,Cu_0.10Mn_0.90,"Cu:10%, Mn:90%",3.923,,,
Systematic_Generation,,,Cu20Mn80,,Pm-3m,,,,,,,,,ALLOY_001925,,,Binary_Alloy,,,Cu_0.20Mn_0.80,"Cu:20%, Mn:80%",2.949,,,
Systematic_Generation,,,Cu30Mn70,,Fm-3m,,,,,,,,,ALLOY_001926,,,Binary_Alloy,,,Cu_0.30Mn_0.70,"Cu:30%, Mn:70%",3.259,,,
Systematic_Generation,,,Cu40Mn60,,Pm-3m,,,,,,,,,ALLOY_001927,,,Binary_Alloy,,,Cu_0.40Mn_0.60,"Cu:40%, Mn:60%",3.995,,,
Systematic_Generation,,,Cu50Mn50,,Im-3m,,,,,,,,,ALLOY_001928,,,Binary_Alloy,,,Cu_0.50Mn_0.50,"Cu:50%, Mn:50%",4.385,,,
Systematic_Generation,,,Cu60Mn40,,P63/mmc,,,,,,,,,ALLOY_001929,,,Binary_Alloy,,,Cu_0.60Mn_0.40,"Cu:60%, Mn:40%",2.548,,,
Systematic_Generation,,,Cu70Mn30,,Pm-3m,,,,,,,,,ALLOY_001930,,,Binary_Alloy,,,Cu_0.70Mn_0.30,"Cu:70%, Mn:30%",3.853,,,
Systematic_Generation,,,Cu80Mn20,,Im-3m,,,,,,,,,ALLOY_001931,,,Binary_Alloy,,,Cu_0.80Mn_0.20,"Cu:80%, Mn:20%",3.613,,,
Systematic_Generation,,,Cu90Mn10,,Pm-3m,,,,,,,,,ALLOY_001932,,,Binary_Alloy,,,Cu_0.90Mn_0.10,"Cu:90%, Mn:10%",4.096,,,
Systematic_Generation,,,Cu10Mg90,,Pm-3m,,,,,,,,,ALLOY_001933,,,Binary_Alloy,,,Cu_0.10Mg_0.90,"Cu:10%, Mg:90%",2.646,,,
Systematic_Generation,,,Cu20Mg80,,Pm-3m,,,,,,,,,ALLOY_001934,,,Binary_Alloy,,,Cu_0.20Mg_0.80,"Cu:20%, Mg:80%",3.844,,,
Systematic_Generation,,,Cu30Mg70,,Fm-3m,,,,,,,,,ALLOY_001935,,,Binary_Alloy,,,Cu_0.30Mg_0.70,"Cu:30%, Mg:70%",3.346,,,
Systematic_Generation,,,Cu40Mg60,,Im-3m,,,,,,,,,ALLOY_001936,,,Binary_Alloy,,,Cu_0.40Mg_0.60,"Cu:40%, Mg:60%",3.493,,,
Systematic_Generation,,,Cu50Mg50,,Pm-3m,,,,,,,,,ALLOY_001937,,,Binary_Alloy,,,Cu_0.50Mg_0.50,"Cu:50%, Mg:50%",2.859,,,
Systematic_Generation,,,Cu60Mg40,,P63/mmc,,,,,,,,,ALLOY_001938,,,Binary_Alloy,,,Cu_0.60Mg_0.40,"Cu:60%, Mg:40%",3.489,,,
Systematic_Generation,,,Cu70Mg30,,Im-3m,,,,,,,,,ALLOY_001939,,,Binary_Alloy,,,Cu_0.70Mg_0.30,"Cu:70%, Mg:30%",3.07,,,
Systematic_Generation,,,Cu80Mg20,,P63/mmc,,,,,,,,,ALLOY_001940,,,Binary_Alloy,,,Cu_0.80Mg_0.20,"Cu:80%, Mg:20%",4.039,,,
Systematic_Generation,,,Cu90Mg10,,Fm-3m,,,,,,,,,ALLOY_001941,,,Binary_Alloy,,,Cu_0.90Mg_0.10,"Cu:90%, Mg:10%",2.677,,,
Systematic_Generation,,,Cu10Zn90,,Fm-3m,,,,,,,,,ALLOY_001942,,,Binary_Alloy,,,Cu_0.10Zn_0.90,"Cu:10%, Zn:90%",3.393,,,
Systematic_Generation,,,Cu20Zn80,,Im-3m,,,,,,,,,ALLOY_001943,,,Binary_Alloy,,,Cu_0.20Zn_0.80,"Cu:20%, Zn:80%",3.495,,,
Systematic_Generation,,,Cu30Zn70,,Pm-3m,,,,,,,,,ALLOY_001944,,,Binary_Alloy,,,Cu_0.30Zn_0.70,"Cu:30%, Zn:70%",3.877,,,
Systematic_Generation,,,Cu40Zn60,,P63/mmc,,,,,,,,,ALLOY_001945,,,Binary_Alloy,,,Cu_0.40Zn_0.60,"Cu:40%, Zn:60%",4.342,,,
Systematic_Generation,,,Cu50Zn50,,Pm-3m,,,,,,,,,ALLOY_001946,,,Binary_Alloy,,,Cu_0.50Zn_0.50,"Cu:50%, Zn:50%",3.066,,,
Systematic_Generation,,,Cu60Zn40,,P63/mmc,,,,,,,,,ALLOY_001947,,,Binary_Alloy,,,Cu_0.60Zn_0.40,"Cu:60%, Zn:40%",3.955,,,
Systematic_Generation,,,Cu70Zn30,,Pm-3m,,,,,,,,,ALLOY_001948,,,Binary_Alloy,,,Cu_0.70Zn_0.30,"Cu:70%, Zn:30%",3.834,,,
Systematic_Generation,,,Cu80Zn20,,P63/mmc,,,,,,,,,ALLOY_001949,,,Binary_Alloy,,,Cu_0.80Zn_0.20,"Cu:80%, Zn:20%",2.818,,,
Systematic_Generation,,,Cu90Zn10,,Fm-3m,,,,,,,,,ALLOY_001950,,,Binary_Alloy,,,Cu_0.90Zn_0.10,"Cu:90%, Zn:10%",3.359,,,
Systematic_Generation,,,Cu10Si90,,Fm-3m,,,,,,,,,ALLOY_001951,,,Binary_Alloy,,,Cu_0.10Si_0.90,"Cu:10%, Si:90%",2.732,,,
Systematic_Generation,,,Cu20Si80,,Fm-3m,,,,,,,,,ALLOY_001952,,,Binary_Alloy,,,Cu_0.20Si_0.80,"Cu:20%, Si:80%",2.7,,,
Systematic_Generation,,,Cu30Si70,,Im-3m,,,,,,,,,ALLOY_001953,,,Binary_Alloy,,,Cu_0.30Si_0.70,"Cu:30%, Si:70%",2.702,,,
Systematic_Generation,,,Cu40Si60,,P63/mmc,,,,,,,,,ALLOY_001954,,,Binary_Alloy,,,Cu_0.40Si_0.60,"Cu:40%, Si:60%",4.307,,,
Systematic_Generation,,,Cu50Si50,,Im-3m,,,,,,,,,ALLOY_001955,,,Binary_Alloy,,,Cu_0.50Si_0.50,"Cu:50%, Si:50%",3.467,,,
Systematic_Generation,,,Cu60Si40,,Fm-3m,,,,,,,,,ALLOY_001956,,,Binary_Alloy,,,Cu_0.60Si_0.40,"Cu:60%, Si:40%",3.629,,,
Systematic_Generation,,,Cu70Si30,,P63/mmc,,,,,,,,,ALLOY_001957,,,Binary_Alloy,,,Cu_0.70Si_0.30,"Cu:70%, Si:30%",3.872,,,
Systematic_Generation,,,Cu80Si20,,P63/mmc,,,,,,,,,ALLOY_001958,,,Binary_Alloy,,,Cu_0.80Si_0.20,"Cu:80%, Si:20%",2.95,,,
Systematic_Generation,,,Cu90Si10,,Im-3m,,,,,,,,,ALLOY_001959,,,Binary_Alloy,,,Cu_0.90Si_0.10,"Cu:90%, Si:10%",4.409,,,
Systematic_Generation,,,Cu10Mo90,,Fm-3m,,,,,,,,,ALLOY_001960,,,Binary_Alloy,,,Cu_0.10Mo_0.90,"Cu:10%, Mo:90%",3.107,,,
Systematic_Generation,,,Cu20Mo80,,Im-3m,,,,,,,,,ALLOY_001961,,,Binary_Alloy,,,Cu_0.20Mo_0.80,"Cu:20%, Mo:80%",3.41,,,
Systematic_Generation,,,Cu30Mo70,,P63/mmc,,,,,,,,,ALLOY_001962,,,Binary_Alloy,,,Cu_0.30Mo_0.70,"Cu:30%, Mo:70%",4.487,,,
Systematic_Generation,,,Cu40Mo60,,Im-3m,,,,,,,,,ALLOY_001963,,,Binary_Alloy,,,Cu_0.40Mo_0.60,"Cu:40%, Mo:60%",3.539,,,
Systematic_Generation,,,Cu50Mo50,,P63/mmc,,,,,,,,,ALLOY_001964,,,Binary_Alloy,,,Cu_0.50Mo_0.50,"Cu:50%, Mo:50%",4.397,,,
Systematic_Generation,,,Cu60Mo40,,Pm-3m,,,,,,,,,ALLOY_001965,,,Binary_Alloy,,,Cu_0.60Mo_0.40,"Cu:60%, Mo:40%",3.405,,,
Systematic_Generation,,,Cu70Mo30,,Im-3m,,,,,,,,,ALLOY_001966,,,Binary_Alloy,,,Cu_0.70Mo_0.30,"Cu:70%, Mo:30%",3.204,,,
Systematic_Generation,,,Cu80Mo20,,Fm-3m,,,,,,,,,ALLOY_001967,,,Binary_Alloy,,,Cu_0.80Mo_0.20,"Cu:80%, Mo:20%",2.759,,,
Systematic_Generation,,,Cu90Mo10,,P63/mmc,,,,,,,,,ALLOY_001968,,,Binary_Alloy,,,Cu_0.90Mo_0.10,"Cu:90%, Mo:10%",4.342,,,
Systematic_Generation,,,Cu10W90,,Pm-3m,,,,,,,,,ALLOY_001969,,,Binary_Alloy,,,Cu_0.10W_0.90,"Cu:10%, W:90%",2.562,,,
Systematic_Generation,,,Cu20W80,,P63/mmc,,,,,,,,,ALLOY_001970,,,Binary_Alloy,,,Cu_0.20W_0.80,"Cu:20%, W:80%",2.869,,,
Systematic_Generation,,,Cu30W70,,Pm-3m,,,,,,,,,ALLOY_001971,,,Binary_Alloy,,,Cu_0.30W_0.70,"Cu:30%, W:70%",3.199,,,
Systematic_Generation,,,Cu40W60,,Im-3m,,,,,,,,,ALLOY_001972,,,Binary_Alloy,,,Cu_0.40W_0.60,"Cu:40%, W:60%",2.545,,,
Systematic_Generation,,,Cu50W50,,Pm-3m,,,,,,,,,ALLOY_001973,,,Binary_Alloy,,,Cu_0.50W_0.50,"Cu:50%, W:50%",3.054,,,
Systematic_Generation,,,Cu60W40,,Im-3m,,,,,,,,,ALLOY_001974,,,Binary_Alloy,,,Cu_0.60W_0.40,"Cu:60%, W:40%",4.322,,,
Systematic_Generation,,,Cu70W30,,P63/mmc,,,,,,,,,ALLOY_001975,,,Binary_Alloy,,,Cu_0.70W_0.30,"Cu:70%, W:30%",3.069,,,
Systematic_Generation,,,Cu80W20,,P63/mmc,,,,,,,,,ALLOY_001976,,,Binary_Alloy,,,Cu_0.80W_0.20,"Cu:80%, W:20%",3.072,,,
Systematic_Generation,,,Cu90W10,,Im-3m,,,,,,,,,ALLOY_001977,,,Binary_Alloy,,,Cu_0.90W_0.10,"Cu:90%, W:10%",2.784,,,
Systematic_Generation,,,Cu10V90,,P63/mmc,,,,,,,,,ALLOY_001978,,,Binary_Alloy,,,Cu_0.10V_0.90,"Cu:10%, V:90%",3.08,,,
Systematic_Generation,,,Cu20V80,,Im-3m,,,,,,,,,ALLOY_001979,,,Binary_Alloy,,,Cu_0.20V_0.80,"Cu:20%, V:80%",4.078,,,
Systematic_Generation,,,Cu30V70,,P63/mmc,,,,,,,,,ALLOY_001980,,,Binary_Alloy,,,Cu_0.30V_0.70,"Cu:30%, V:70%",3.954,,,
Systematic_Generation,,,Cu40V60,,Pm-3m,,,,,,,,,ALLOY_001981,,,Binary_Alloy,,,Cu_0.40V_0.60,"Cu:40%, V:60%",3.795,,,
Systematic_Generation,,,Cu50V50,,Fm-3m,,,,,,,,,ALLOY_001982,,,Binary_Alloy,,,Cu_0.50V_0.50,"Cu:50%, V:50%",4.003,,,
Systematic_Generation,,,Cu60V40,,Pm-3m,,,,,,,,,ALLOY_001983,,,Binary_Alloy,,,Cu_0.60V_0.40,"Cu:60%, V:40%",3.904,,,
Systematic_Generation,,,Cu70V30,,Pm-3m,,,,,,,,,ALLOY_001984,,,Binary_Alloy,,,Cu_0.70V_0.30,"Cu:70%, V:30%",2.909,,,
Systematic_Generation,,,Cu80V20,,Im-3m,,,,,,,,,ALLOY_001985,,,Binary_Alloy,,,Cu_0.80V_0.20,"Cu:80%, V:20%",4.385,,,
Systematic_Generation,,,Cu90V10,,Fm-3m,,,,,,,,,ALLOY_001986,,,Binary_Alloy,,,Cu_0.90V_0.10,"Cu:90%, V:10%",3.227,,,
Systematic_Generation,,,Cu10Nb90,,P63/mmc,,,,,,,,,ALLOY_001987,,,Binary_Alloy,,,Cu_0.10Nb_0.90,"Cu:10%, Nb:90%",3.147,,,
Systematic_Generation,,,Cu20Nb80,,P63/mmc,,,,,,,,,ALLOY_001988,,,Binary_Alloy,,,Cu_0.20Nb_0.80,"Cu:20%, Nb:80%",3.566,,,
Systematic_Generation,,,Cu30Nb70,,Fm-3m,,,,,,,,,ALLOY_001989,,,Binary_Alloy,,,Cu_0.30Nb_0.70,"Cu:30%, Nb:70%",4.427,,,
Systematic_Generation,,,Cu40Nb60,,Im-3m,,,,,,,,,ALLOY_001990,,,Binary_Alloy,,,Cu_0.40Nb_0.60,"Cu:40%, Nb:60%",3.971,,,
Systematic_Generation,,,Cu50Nb50,,Pm-3m,,,,,,,,,ALLOY_001991,,,Binary_Alloy,,,Cu_0.50Nb_0.50,"Cu:50%, Nb:50%",2.577,,,
Systematic_Generation,,,Cu60Nb40,,Fm-3m,,,,,,,,,ALLOY_001992,,,Binary_Alloy,,,Cu_0.60Nb_0.40,"Cu:60%, Nb:40%",3.924,,,
Systematic_Generation,,,Cu70Nb30,,Fm-3m,,,,,,,,,ALLOY_001993,,,Binary_Alloy,,,Cu_0.70Nb_0.30,"Cu:70%, Nb:30%",4.054,,,
Systematic_Generation,,,Cu80Nb20,,Pm-3m,,,,,,,,,ALLOY_001994,,,Binary_Alloy,,,Cu_0.80Nb_0.20,"Cu:80%, Nb:20%",4.014,,,
Systematic_Generation,,,Cu90Nb10,,Pm-3m,,,,,,,,,ALLOY_001995,,,Binary_Alloy,,,Cu_0.90Nb_0.10,"Cu:90%, Nb:10%",2.689,,,
Systematic_Generation,,,Fe10Ni90,,Pm-3m,,,,,,,,,ALLOY_001996,,,Binary_Alloy,,,Fe_0.10Ni_0.90,"Fe:10%, Ni:90%",4.459,,,
Systematic_Generation,,,Fe20Ni80,,Im-3m,,,,,,,,,ALLOY_001997,,,Binary_Alloy,,,Fe_0.20Ni_0.80,"Fe:20%, Ni:80%",3.96,,,
Systematic_Generation,,,Fe30Ni70,,Pm-3m,,,,,,,,,ALLOY_001998,,,Binary_Alloy,,,Fe_0.30Ni_0.70,"Fe:30%, Ni:70%",3.395,,,
Systematic_Generation,,,Fe40Ni60,,Fm-3m,,,,,,,,,ALLOY_001999,,,Binary_Alloy,,,Fe_0.40Ni_0.60,"Fe:40%, Ni:60%",2.748,,,
Systematic_Generation,,,Fe50Ni50,,Fm-3m,,,,,,,,,ALLOY_002000,,,Binary_Alloy,,,Fe_0.50Ni_0.50,"Fe:50%, Ni:50%",4.337,,,
Systematic_Generation,,,Fe60Ni40,,Pm-3m,,,,,,,,,ALLOY_002001,,,Binary_Alloy,,,Fe_0.60Ni_0.40,"Fe:60%, Ni:40%",3.876,,,
Systematic_Generation,,,Fe70Ni30,,Fm-3m,,,,,,,,,ALLOY_002002,,,Binary_Alloy,,,Fe_0.70Ni_0.30,"Fe:70%, Ni:30%",3.079,,,
Systematic_Generation,,,Fe80Ni20,,P63/mmc,,,,,,,,,ALLOY_002003,,,Binary_Alloy,,,Fe_0.80Ni_0.20,"Fe:80%, Ni:20%",4.121,,,
Systematic_Generation,,,Fe90Ni10,,Pm-3m,,,,,,,,,ALLOY_002004,,,Binary_Alloy,,,Fe_0.90Ni_0.10,"Fe:90%, Ni:10%",3.846,,,
Systematic_Generation,,,Fe10Ti90,,Im-3m,,,,,,,,,ALLOY_002005,,,Binary_Alloy,,,Fe_0.10Ti_0.90,"Fe:10%, Ti:90%",3.238,,,
Systematic_Generation,,,Fe20Ti80,,P63/mmc,,,,,,,,,ALLOY_002006,,,Binary_Alloy,,,Fe_0.20Ti_0.80,"Fe:20%, Ti:80%",2.767,,,
Systematic_Generation,,,Fe30Ti70,,Im-3m,,,,,,,,,ALLOY_002007,,,Binary_Alloy,,,Fe_0.30Ti_0.70,"Fe:30%, Ti:70%",2.854,,,
Systematic_Generation,,,Fe40Ti60,,P63/mmc,,,,,,,,,ALLOY_002008,,,Binary_Alloy,,,Fe_0.40Ti_0.60,"Fe:40%, Ti:60%",3.372,,,
Systematic_Generation,,,Fe50Ti50,,P63/mmc,,,,,,,,,ALLOY_002009,,,Binary_Alloy,,,Fe_0.50Ti_0.50,"Fe:50%, Ti:50%",4.351,,,
Systematic_Generation,,,Fe60Ti40,,Fm-3m,,,,,,,,,ALLOY_002010,,,Binary_Alloy,,,Fe_0.60Ti_0.40,"Fe:60%, Ti:40%",3.885,,,
Systematic_Generation,,,Fe70Ti30,,Pm-3m,,,,,,,,,ALLOY_002011,,,Binary_Alloy,,,Fe_0.70Ti_0.30,"Fe:70%, Ti:30%",3.524,,,
Systematic_Generation,,,Fe80Ti20,,Fm-3m,,,,,,,,,ALLOY_002012,,,Binary_Alloy,,,Fe_0.80Ti_0.20,"Fe:80%, Ti:20%",3.737,,,
Systematic_Generation,,,Fe90Ti10,,Fm-3m,,,,,,,,,ALLOY_002013,,,Binary_Alloy,,,Fe_0.90Ti_0.10,"Fe:90%, Ti:10%",3.841,,,
Systematic_Generation,,,Fe10Cr90,,P63/mmc,,,,,,,,,ALLOY_002014,,,Binary_Alloy,,,Fe_0.10Cr_0.90,"Fe:10%, Cr:90%",3.911,,,
Systematic_Generation,,,Fe20Cr80,,P63/mmc,,,,,,,,,ALLOY_002015,,,Binary_Alloy,,,Fe_0.20Cr_0.80,"Fe:20%, Cr:80%",2.827,,,
Systematic_Generation,,,Fe30Cr70,,P63/mmc,,,,,,,,,ALLOY_002016,,,Binary_Alloy,,,Fe_0.30Cr_0.70,"Fe:30%, Cr:70%",4.443,,,
Systematic_Generation,,,Fe40Cr60,,P63/mmc,,,,,,,,,ALLOY_002017,,,Binary_Alloy,,,Fe_0.40Cr_0.60,"Fe:40%, Cr:60%",2.612,,,
Systematic_Generation,,,Fe50Cr50,,Pm-3m,,,,,,,,,ALLOY_002018,,,Binary_Alloy,,,Fe_0.50Cr_0.50,"Fe:50%, Cr:50%",2.816,,,
Systematic_Generation,,,Fe60Cr40,,Fm-3m,,,,,,,,,ALLOY_002019,,,Binary_Alloy,,,Fe_0.60Cr_0.40,"Fe:60%, Cr:40%",3.654,,,