source,n_elements,doping_concentration,name,termination,space_group,doping_level,volume_fraction,weight_percent,lattice_c,temperature,reinforcement,matrix,layers,material_id,molecular_weight,deposition_method,type,lattice_b,pdi,formula,composition,lattice_a,thickness_nm,dopant,substrate
Systematic_Generation,,1e+20,GaP:Li_1.0e+20,,Inherited,,,,,,,,,DOPED_003820,,,Doped_Semiconductor,,,GaP_Li,GaP + Li @ 1.0e+20 cm^-3,,,Li,
Systematic_Generation,,1e+21,GaP:Li_1.0e+21,,Inherited,,,,,,,,,DOPED_003821,,,Doped_Semiconductor,,,GaP_Li,GaP + Li @ 1.0e+21 cm^-3,,,Li,
Systematic_Generation,,1000000000000000.0,GaP:S_1.0e+15,,Inherited,,,,,,,,,DOPED_003822,,,Doped_Semiconductor,,,GaP_S,GaP + S @ 1.0e+15 cm^-3,,,S,
Systematic_Generation,,5000000000000000.0,GaP:S_5.0e+15,,Inherited,,,,,,,,,DOPED_003823,,,Doped_Semiconductor,,,GaP_S,GaP + S @ 5.0e+15 cm^-3,,,S,
Systematic_Generation,,1e+16,GaP:S_1.0e+16,,Inherited,,,,,,,,,DOPED_003824,,,Doped_Semiconductor,,,GaP_S,GaP + S @ 1.0e+16 cm^-3,,,S,
Systematic_Generation,,5e+16,GaP:S_5.0e+16,,Inherited,,,,,,,,,DOPED_003825,,,Doped_Semiconductor,,,GaP_S,GaP + S @ 5.0e+16 cm^-3,,,S,
Systematic_Generation,,1e+17,GaP:S_1.0e+17,,Inherited,,,,,,,,,DOPED_003826,,,Doped_Semiconductor,,,GaP_S,GaP + S @ 1.0e+17 cm^-3,,,S,
Systematic_Generation,,5e+17,GaP:S_5.0e+17,,Inherited,,,,,,,,,DOPED_003827,,,Doped_Semiconductor,,,GaP_S,GaP + S @ 5.0e+17 cm^-3,,,S,
Systematic_Generation,,1e+18,GaP:S_1.0e+18,,Inherited,,,,,,,,,DOPED_003828,,,Doped_Semiconductor,,,GaP_S,GaP + S @ 1.0e+18 cm^-3,,,S,
Systematic_Generation,,5e+18,GaP:S_5.0e+18,,Inherited,,,,,,,,,DOPED_003829,,,Doped_Semiconductor,,,GaP_S,GaP + S @ 5.0e+18 cm^-3,,,S,
Systematic_Generation,,1e+19,GaP:S_1.0e+19,,Inherited,,,,,,,,,DOPED_003830,,,Doped_Semiconductor,,,GaP_S,GaP + S @ 1.0e+19 cm^-3,,,S,
Systematic_Generation,,5e+19,GaP:S_5.0e+19,,Inherited,,,,,,,,,DOPED_003831,,,Doped_Semiconductor,,,GaP_S,GaP + S @ 5.0e+19 cm^-3,,,S,
Systematic_Generation,,1e+20,GaP:S_1.0e+20,,Inherited,,,,,,,,,DOPED_003832,,,Doped_Semiconductor,,,GaP_S,GaP + S @ 1.0e+20 cm^-3,,,S,
Systematic_Generation,,1e+21,GaP:S_1.0e+21,,Inherited,,,,,,,,,DOPED_003833,,,Doped_Semiconductor,,,GaP_S,GaP + S @ 1.0e+21 cm^-3,,,S,
Systematic_Generation,,1000000000000000.0,GaP:Se_1.0e+15,,Inherited,,,,,,,,,DOPED_003834,,,Doped_Semiconductor,,,GaP_Se,GaP + Se @ 1.0e+15 cm^-3,,,Se,
Systematic_Generation,,5000000000000000.0,GaP:Se_5.0e+15,,Inherited,,,,,,,,,DOPED_003835,,,Doped_Semiconductor,,,GaP_Se,GaP + Se @ 5.0e+15 cm^-3,,,Se,
Systematic_Generation,,1e+16,GaP:Se_1.0e+16,,Inherited,,,,,,,,,DOPED_003836,,,Doped_Semiconductor,,,GaP_Se,GaP + Se @ 1.0e+16 cm^-3,,,Se,
Systematic_Generation,,5e+16,GaP:Se_5.0e+16,,Inherited,,,,,,,,,DOPED_003837,,,Doped_Semiconductor,,,GaP_Se,GaP + Se @ 5.0e+16 cm^-3,,,Se,
Systematic_Generation,,1e+17,GaP:Se_1.0e+17,,Inherited,,,,,,,,,DOPED_003838,,,Doped_Semiconductor,,,GaP_Se,GaP + Se @ 1.0e+17 cm^-3,,,Se,
Systematic_Generation,,5e+17,GaP:Se_5.0e+17,,Inherited,,,,,,,,,DOPED_003839,,,Doped_Semiconductor,,,GaP_Se,GaP + Se @ 5.0e+17 cm^-3,,,Se,
Systematic_Generation,,1e+18,GaP:Se_1.0e+18,,Inherited,,,,,,,,,DOPED_003840,,,Doped_Semiconductor,,,GaP_Se,GaP + Se @ 1.0e+18 cm^-3,,,Se,
Systematic_Generation,,5e+18,GaP:Se_5.0e+18,,Inherited,,,,,,,,,DOPED_003841,,,Doped_Semiconductor,,,GaP_Se,GaP + Se @ 5.0e+18 cm^-3,,,Se,
Systematic_Generation,,1e+19,GaP:Se_1.0e+19,,Inherited,,,,,,,,,DOPED_003842,,,Doped_Semiconductor,,,GaP_Se,GaP + Se @ 1.0e+19 cm^-3,,,Se,
Systematic_Generation,,5e+19,GaP:Se_5.0e+19,,Inherited,,,,,,,,,DOPED_003843,,,Doped_Semiconductor,,,GaP_Se,GaP + Se @ 5.0e+19 cm^-3,,,Se,
Systematic_Generation,,1e+20,GaP:Se_1.0e+20,,Inherited,,,,,,,,,DOPED_003844,,,Doped_Semiconductor,,,GaP_Se,GaP + Se @ 1.0e+20 cm^-3,,,Se,
Systematic_Generation,,1e+21,GaP:Se_1.0e+21,,Inherited,,,,,,,,,DOPED_003845,,,Doped_Semiconductor,,,GaP_Se,GaP + Se @ 1.0e+21 cm^-3,,,Se,
Systematic_Generation,,1000000000000000.0,GaP:Te_1.0e+15,,Inherited,,,,,,,,,DOPED_003846,,,Doped_Semiconductor,,,GaP_Te,GaP + Te @ 1.0e+15 cm^-3,,,Te,
Systematic_Generation,,5000000000000000.0,GaP:Te_5.0e+15,,Inherited,,,,,,,,,DOPED_003847,,,Doped_Semiconductor,,,GaP_Te,GaP + Te @ 5.0e+15 cm^-3,,,Te,
Systematic_Generation,,1e+16,GaP:Te_1.0e+16,,Inherited,,,,,,,,,DOPED_003848,,,Doped_Semiconductor,,,GaP_Te,GaP + Te @ 1.0e+16 cm^-3,,,Te,
Systematic_Generation,,5e+16,GaP:Te_5.0e+16,,Inherited,,,,,,,,,DOPED_003849,,,Doped_Semiconductor,,,GaP_Te,GaP + Te @ 5.0e+16 cm^-3,,,Te,
Systematic_Generation,,1e+17,GaP:Te_1.0e+17,,Inherited,,,,,,,,,DOPED_003850,,,Doped_Semiconductor,,,GaP_Te,GaP + Te @ 1.0e+17 cm^-3,,,Te,
Systematic_Generation,,5e+17,GaP:Te_5.0e+17,,Inherited,,,,,,,,,DOPED_003851,,,Doped_Semiconductor,,,GaP_Te,GaP + Te @ 5.0e+17 cm^-3,,,Te,
Systematic_Generation,,1e+18,GaP:Te_1.0e+18,,Inherited,,,,,,,,,DOPED_003852,,,Doped_Semiconductor,,,GaP_Te,GaP + Te @ 1.0e+18 cm^-3,,,Te,
Systematic_Generation,,5e+18,GaP:Te_5.0e+18,,Inherited,,,,,,,,,DOPED_003853,,,Doped_Semiconductor,,,GaP_Te,GaP + Te @ 5.0e+18 cm^-3,,,Te,
Systematic_Generation,,1e+19,GaP:Te_1.0e+19,,Inherited,,,,,,,,,DOPED_003854,,,Doped_Semiconductor,,,GaP_Te,GaP + Te @ 1.0e+19 cm^-3,,,Te,
Systematic_Generation,,5e+19,GaP:Te_5.0e+19,,Inherited,,,,,,,,,DOPED_003855,,,Doped_Semiconductor,,,GaP_Te,GaP + Te @ 5.0e+19 cm^-3,,,Te,
Systematic_Generation,,1e+20,GaP:Te_1.0e+20,,Inherited,,,,,,,,,DOPED_003856,,,Doped_Semiconductor,,,GaP_Te,GaP + Te @ 1.0e+20 cm^-3,,,Te,
Systematic_Generation,,1e+21,GaP:Te_1.0e+21,,Inherited,,,,,,,,,DOPED_003857,,,Doped_Semiconductor,,,GaP_Te,GaP + Te @ 1.0e+21 cm^-3,,,Te,
Systematic_Generation,,1000000000000000.0,InAs:B_1.0e+15,,Inherited,,,,,,,,,DOPED_003858,,,Doped_Semiconductor,,,InAs_B,InAs + B @ 1.0e+15 cm^-3,,,B,
Systematic_Generation,,5000000000000000.0,InAs:B_5.0e+15,,Inherited,,,,,,,,,DOPED_003859,,,Doped_Semiconductor,,,InAs_B,InAs + B @ 5.0e+15 cm^-3,,,B,
Systematic_Generation,,1e+16,InAs:B_1.0e+16,,Inherited,,,,,,,,,DOPED_003860,,,Doped_Semiconductor,,,InAs_B,InAs + B @ 1.0e+16 cm^-3,,,B,
Systematic_Generation,,5e+16,InAs:B_5.0e+16,,Inherited,,,,,,,,,DOPED_003861,,,Doped_Semiconductor,,,InAs_B,InAs + B @ 5.0e+16 cm^-3,,,B,
Systematic_Generation,,1e+17,InAs:B_1.0e+17,,Inherited,,,,,,,,,DOPED_003862,,,Doped_Semiconductor,,,InAs_B,InAs + B @ 1.0e+17 cm^-3,,,B,
Systematic_Generation,,5e+17,InAs:B_5.0e+17,,Inherited,,,,,,,,,DOPED_003863,,,Doped_Semiconductor,,,InAs_B,InAs + B @ 5.0e+17 cm^-3,,,B,
Systematic_Generation,,1e+18,InAs:B_1.0e+18,,Inherited,,,,,,,,,DOPED_003864,,,Doped_Semiconductor,,,InAs_B,InAs + B @ 1.0e+18 cm^-3,,,B,
Systematic_Generation,,5e+18,InAs:B_5.0e+18,,Inherited,,,,,,,,,DOPED_003865,,,Doped_Semiconductor,,,InAs_B,InAs + B @ 5.0e+18 cm^-3,,,B,
Systematic_Generation,,1e+19,InAs:B_1.0e+19,,Inherited,,,,,,,,,DOPED_003866,,,Doped_Semiconductor,,,InAs_B,InAs + B @ 1.0e+19 cm^-3,,,B,
Systematic_Generation,,5e+19,InAs:B_5.0e+19,,Inherited,,,,,,,,,DOPED_003867,,,Doped_Semiconductor,,,InAs_B,InAs + B @ 5.0e+19 cm^-3,,,B,
Systematic_Generation,,1e+20,InAs:B_1.0e+20,,Inherited,,,,,,,,,DOPED_003868,,,Doped_Semiconductor,,,InAs_B,InAs + B @ 1.0e+20 cm^-3,,,B,
Systematic_Generation,,1e+21,InAs:B_1.0e+21,,Inherited,,,,,,,,,DOPED_003869,,,Doped_Semiconductor,,,InAs_B,InAs + B @ 1.0e+21 cm^-3,,,B,
Systematic_Generation,,1000000000000000.0,InAs:P_1.0e+15,,Inherited,,,,,,,,,DOPED_003870,,,Doped_Semiconductor,,,InAs_P,InAs + P @ 1.0e+15 cm^-3,,,P,
Systematic_Generation,,5000000000000000.0,InAs:P_5.0e+15,,Inherited,,,,,,,,,DOPED_003871,,,Doped_Semiconductor,,,InAs_P,InAs + P @ 5.0e+15 cm^-3,,,P,
Systematic_Generation,,1e+16,InAs:P_1.0e+16,,Inherited,,,,,,,,,DOPED_003872,,,Doped_Semiconductor,,,InAs_P,InAs + P @ 1.0e+16 cm^-3,,,P,
Systematic_Generation,,5e+16,InAs:P_5.0e+16,,Inherited,,,,,,,,,DOPED_003873,,,Doped_Semiconductor,,,InAs_P,InAs + P @ 5.0e+16 cm^-3,,,P,
Systematic_Generation,,1e+17,InAs:P_1.0e+17,,Inherited,,,,,,,,,DOPED_003874,,,Doped_Semiconductor,,,InAs_P,InAs + P @ 1.0e+17 cm^-3,,,P,
Systematic_Generation,,5e+17,InAs:P_5.0e+17,,Inherited,,,,,,,,,DOPED_003875,,,Doped_Semiconductor,,,InAs_P,InAs + P @ 5.0e+17 cm^-3,,,P,
Systematic_Generation,,1e+18,InAs:P_1.0e+18,,Inherited,,,,,,,,,DOPED_003876,,,Doped_Semiconductor,,,InAs_P,InAs + P @ 1.0e+18 cm^-3,,,P,
Systematic_Generation,,5e+18,InAs:P_5.0e+18,,Inherited,,,,,,,,,DOPED_003877,,,Doped_Semiconductor,,,InAs_P,InAs + P @ 5.0e+18 cm^-3,,,P,
Systematic_Generation,,1e+19,InAs:P_1.0e+19,,Inherited,,,,,,,,,DOPED_003878,,,Doped_Semiconductor,,,InAs_P,InAs + P @ 1.0e+19 cm^-3,,,P,
Systematic_Generation,,5e+19,InAs:P_5.0e+19,,Inherited,,,,,,,,,DOPED_003879,,,Doped_Semiconductor,,,InAs_P,InAs + P @ 5.0e+19 cm^-3,,,P,
Systematic_Generation,,1e+20,InAs:P_1.0e+20,,Inherited,,,,,,,,,DOPED_003880,,,Doped_Semiconductor,,,InAs_P,InAs + P @ 1.0e+20 cm^-3,,,P,
Systematic_Generation,,1e+21,InAs:P_1.0e+21,,Inherited,,,,,,,,,DOPED_003881,,,Doped_Semiconductor,,,InAs_P,InAs + P @ 1.0e+21 cm^-3,,,P,
Systematic_Generation,,1000000000000000.0,InAs:As_1.0e+15,,Inherited,,,,,,,,,DOPED_003882,,,Doped_Semiconductor,,,InAs_As,InAs + As @ 1.0e+15 cm^-3,,,As,
Systematic_Generation,,5000000000000000.0,InAs:As_5.0e+15,,Inherited,,,,,,,,,DOPED_003883,,,Doped_Semiconductor,,,InAs_As,InAs + As @ 5.0e+15 cm^-3,,,As,
Systematic_Generation,,1e+16,InAs:As_1.0e+16,,Inherited,,,,,,,,,DOPED_003884,,,Doped_Semiconductor,,,InAs_As,InAs + As @ 1.0e+16 cm^-3,,,As,
Systematic_Generation,,5e+16,InAs:As_5.0e+16,,Inherited,,,,,,,,,DOPED_003885,,,Doped_Semiconductor,,,InAs_As,InAs + As @ 5.0e+16 cm^-3,,,As,
Systematic_Generation,,1e+17,InAs:As_1.0e+17,,Inherited,,,,,,,,,DOPED_003886,,,Doped_Semiconductor,,,InAs_As,InAs + As @ 1.0e+17 cm^-3,,,As,
Systematic_Generation,,5e+17,InAs:As_5.0e+17,,Inherited,,,,,,,,,DOPED_003887,,,Doped_Semiconductor,,,InAs_As,InAs + As @ 5.0e+17 cm^-3,,,As,
Systematic_Generation,,1e+18,InAs:As_1.0e+18,,Inherited,,,,,,,,,DOPED_003888,,,Doped_Semiconductor,,,InAs_As,InAs + As @ 1.0e+18 cm^-3,,,As,
Systematic_Generation,,5e+18,InAs:As_5.0e+18,,Inherited,,,,,,,,,DOPED_003889,,,Doped_Semiconductor,,,InAs_As,InAs + As @ 5.0e+18 cm^-3,,,As,
Systematic_Generation,,1e+19,InAs:As_1.0e+19,,Inherited,,,,,,,,,DOPED_003890,,,Doped_Semiconductor,,,InAs_As,InAs + As @ 1.0e+19 cm^-3,,,As,
Systematic_Generation,,5e+19,InAs:As_5.0e+19,,Inherited,,,,,,,,,DOPED_003891,,,Doped_Semiconductor,,,InAs_As,InAs + As @ 5.0e+19 cm^-3,,,As,
Systematic_Generation,,1e+20,InAs:As_1.0e+20,,Inherited,,,,,,,,,DOPED_003892,,,Doped_Semiconductor,,,InAs_As,InAs + As @ 1.0e+20 cm^-3,,,As,
Systematic_Generation,,1e+21,InAs:As_1.0e+21,,Inherited,,,,,,,,,DOPED_003893,,,Doped_Semiconductor,,,InAs_As,InAs + As @ 1.0e+21 cm^-3,,,As,
Systematic_Generation,,1000000000000000.0,InAs:Sb_1.0e+15,,Inherited,,,,,,,,,DOPED_003894,,,Doped_Semiconductor,,,InAs_Sb,InAs + Sb @ 1.0e+15 cm^-3,,,Sb,
Systematic_Generation,,5000000000000000.0,InAs:Sb_5.0e+15,,Inherited,,,,,,,,,DOPED_003895,,,Doped_Semiconductor,,,InAs_Sb,InAs + Sb @ 5.0e+15 cm^-3,,,Sb,
Systematic_Generation,,1e+16,InAs:Sb_1.0e+16,,Inherited,,,,,,,,,DOPED_003896,,,Doped_Semiconductor,,,InAs_Sb,InAs + Sb @ 1.0e+16 cm^-3,,,Sb,
Systematic_Generation,,5e+16,InAs:Sb_5.0e+16,,Inherited,,,,,,,,,DOPED_003897,,,Doped_Semiconductor,,,InAs_Sb,InAs + Sb @ 5.0e+16 cm^-3,,,Sb,
Systematic_Generation,,1e+17,InAs:Sb_1.0e+17,,Inherited,,,,,,,,,DOPED_003898,,,Doped_Semiconductor,,,InAs_Sb,InAs + Sb @ 1.0e+17 cm^-3,,,Sb,
Systematic_Generation,,5e+17,InAs:Sb_5.0e+17,,Inherited,,,,,,,,,DOPED_003899,,,Doped_Semiconductor,,,InAs_Sb,InAs + Sb @ 5.0e+17 cm^-3,,,Sb,
Systematic_Generation,,1e+18,InAs:Sb_1.0e+18,,Inherited,,,,,,,,,DOPED_003900,,,Doped_Semiconductor,,,InAs_Sb,InAs + Sb @ 1.0e+18 cm^-3,,,Sb,
Systematic_Generation,,5e+18,InAs:Sb_5.0e+18,,Inherited,,,,,,,,,DOPED_003901,,,Doped_Semiconductor,,,InAs_Sb,InAs + Sb @ 5.0e+18 cm^-3,,,Sb,
Systematic_Generation,,1e+19,InAs:Sb_1.0e+19,,Inherited,,,,,,,,,DOPED_003902,,,Doped_Semiconductor,,,InAs_Sb,InAs + Sb @ 1.0e+19 cm^-3,,,Sb,
Systematic_Generation,,5e+19,InAs:Sb_5.0e+19,,Inherited,,,,,,,,,DOPED_003903,,,Doped_Semiconductor,,,InAs_Sb,InAs + Sb @ 5.0e+19 cm^-3,,,Sb,
Systematic_Generation,,1e+20,InAs:Sb_1.0e+20,,Inherited,,,,,,,,,DOPED_003904,,,Doped_Semiconductor,,,InAs_Sb,InAs + Sb @ 1.0e+20 cm^-3,,,Sb,
Systematic_Generation,,1e+21,InAs:Sb_1.0e+21,,Inherited,,,,,,,,,DOPED_003905,,,Doped_Semiconductor,,,InAs_Sb,InAs + Sb @ 1.0e+21 cm^-3,,,Sb,
Systematic_Generation,,1000000000000000.0,InAs:N_1.0e+15,,Inherited,,,,,,,,,DOPED_003906,,,Doped_Semiconductor,,,InAs_N,InAs + N @ 1.0e+15 cm^-3,,,N,
Systematic_Generation,,5000000000000000.0,InAs:N_5.0e+15,,Inherited,,,,,,,,,DOPED_003907,,,Doped_Semiconductor,,,InAs_N,InAs + N @ 5.0e+15 cm^-3,,,N,
Systematic_Generation,,1e+16,InAs:N_1.0e+16,,Inherited,,,,,,,,,DOPED_003908,,,Doped_Semiconductor,,,InAs_N,InAs + N @ 1.0e+16 cm^-3,,,N,
Systematic_Generation,,5e+16,InAs:N_5.0e+16,,Inherited,,,,,,,,,DOPED_003909,,,Doped_Semiconductor,,,InAs_N,InAs + N @ 5.0e+16 cm^-3,,,N,
Systematic_Generation,,1e+17,InAs:N_1.0e+17,,Inherited,,,,,,,,,DOPED_003910,,,Doped_Semiconductor,,,InAs_N,InAs + N @ 1.0e+17 cm^-3,,,N,
Systematic_Generation,,5e+17,InAs:N_5.0e+17,,Inherited,,,,,,,,,DOPED_003911,,,Doped_Semiconductor,,,InAs_N,InAs + N @ 5.0e+17 cm^-3,,,N,
Systematic_Generation,,1e+18,InAs:N_1.0e+18,,Inherited,,,,,,,,,DOPED_003912,,,Doped_Semiconductor,,,InAs_N,InAs + N @ 1.0e+18 cm^-3,,,N,
Systematic_Generation,,5e+18,InAs:N_5.0e+18,,Inherited,,,,,,,,,DOPED_003913,,,Doped_Semiconductor,,,InAs_N,InAs + N @ 5.0e+18 cm^-3,,,N,
Systematic_Generation,,1e+19,InAs:N_1.0e+19,,Inherited,,,,,,,,,DOPED_003914,,,Doped_Semiconductor,,,InAs_N,InAs + N @ 1.0e+19 cm^-3,,,N,
Systematic_Generation,,5e+19,InAs:N_5.0e+19,,Inherited,,,,,,,,,DOPED_003915,,,Doped_Semiconductor,,,InAs_N,InAs + N @ 5.0e+19 cm^-3,,,N,
Systematic_Generation,,1e+20,InAs:N_1.0e+20,,Inherited,,,,,,,,,DOPED_003916,,,Doped_Semiconductor,,,InAs_N,InAs + N @ 1.0e+20 cm^-3,,,N,
Systematic_Generation,,1e+21,InAs:N_1.0e+21,,Inherited,,,,,,,,,DOPED_003917,,,Doped_Semiconductor,,,InAs_N,InAs + N @ 1.0e+21 cm^-3,,,N,
Systematic_Generation,,1000000000000000.0,InAs:Al_1.0e+15,,Inherited,,,,,,,,,DOPED_003918,,,Doped_Semiconductor,,,InAs_Al,InAs + Al @ 1.0e+15 cm^-3,,,Al,
Systematic_Generation,,5000000000000000.0,InAs:Al_5.0e+15,,Inherited,,,,,,,,,DOPED_003919,,,Doped_Semiconductor,,,InAs_Al,InAs + Al @ 5.0e+15 cm^-3,,,Al,
Systematic_Generation,,1e+16,InAs:Al_1.0e+16,,Inherited,,,,,,,,,DOPED_003920,,,Doped_Semiconductor,,,InAs_Al,InAs + Al @ 1.0e+16 cm^-3,,,Al,
Systematic_Generation,,5e+16,InAs:Al_5.0e+16,,Inherited,,,,,,,,,DOPED_003921,,,Doped_Semiconductor,,,InAs_Al,InAs + Al @ 5.0e+16 cm^-3,,,Al,
Systematic_Generation,,1e+17,InAs:Al_1.0e+17,,Inherited,,,,,,,,,DOPED_003922,,,Doped_Semiconductor,,,InAs_Al,InAs + Al @ 1.0e+17 cm^-3,,,Al,
Systematic_Generation,,5e+17,InAs:Al_5.0e+17,,Inherited,,,,,,,,,DOPED_003923,,,Doped_Semiconductor,,,InAs_Al,InAs + Al @ 5.0e+17 cm^-3,,,Al,
Systematic_Generation,,1e+18,InAs:Al_1.0e+18,,Inherited,,,,,,,,,DOPED_003924,,,Doped_Semiconductor,,,InAs_Al,InAs + Al @ 1.0e+18 cm^-3,,,Al,
Systematic_Generation,,5e+18,InAs:Al_5.0e+18,,Inherited,,,,,,,,,DOPED_003925,,,Doped_Semiconductor,,,InAs_Al,InAs + Al @ 5.0e+18 cm^-3,,,Al,
Systematic_Generation,,1e+19,InAs:Al_1.0e+19,,Inherited,,,,,,,,,DOPED_003926,,,Doped_Semiconductor,,,InAs_Al,InAs + Al @ 1.0e+19 cm^-3,,,Al,
Systematic_Generation,,5e+19,InAs:Al_5.0e+19,,Inherited,,,,,,,,,DOPED_003927,,,Doped_Semiconductor,,,InAs_Al,InAs + Al @ 5.0e+19 cm^-3,,,Al,
Systematic_Generation,,1e+20,InAs:Al_1.0e+20,,Inherited,,,,,,,,,DOPED_003928,,,Doped_Semiconductor,,,InAs_Al,InAs + Al @ 1.0e+20 cm^-3,,,Al,
Systematic_Generation,,1e+21,InAs:Al_1.0e+21,,Inherited,,,,,,,,,DOPED_003929,,,Doped_Semiconductor,,,InAs_Al,InAs + Al @ 1.0e+21 cm^-3,,,Al,
Systematic_Generation,,1000000000000000.0,InAs:Ga_1.0e+15,,Inherited,,,,,,,,,DOPED_003930,,,Doped_Semiconductor,,,InAs_Ga,InAs + Ga @ 1.0e+15 cm^-3,,,Ga,
Systematic_Generation,,5000000000000000.0,InAs:Ga_5.0e+15,,Inherited,,,,,,,,,DOPED_003931,,,Doped_Semiconductor,,,InAs_Ga,InAs + Ga @ 5.0e+15 cm^-3,,,Ga,
Systematic_Generation,,1e+16,InAs:Ga_1.0e+16,,Inherited,,,,,,,,,DOPED_003932,,,Doped_Semiconductor,,,InAs_Ga,InAs + Ga @ 1.0e+16 cm^-3,,,Ga,
Systematic_Generation,,5e+16,InAs:Ga_5.0e+16,,Inherited,,,,,,,,,DOPED_003933,,,Doped_Semiconductor,,,InAs_Ga,InAs + Ga @ 5.0e+16 cm^-3,,,Ga,
Systematic_Generation,,1e+17,InAs:Ga_1.0e+17,,Inherited,,,,,,,,,DOPED_003934,,,Doped_Semiconductor,,,InAs_Ga,InAs + Ga @ 1.0e+17 cm^-3,,,Ga,
Systematic_Generation,,5e+17,InAs:Ga_5.0e+17,,Inherited,,,,,,,,,DOPED_003935,,,Doped_Semiconductor,,,InAs_Ga,InAs + Ga @ 5.0e+17 cm^-3,,,Ga,
Systematic_Generation,,1e+18,InAs:Ga_1.0e+18,,Inherited,,,,,,,,,DOPED_003936,,,Doped_Semiconductor,,,InAs_Ga,InAs + Ga @ 1.0e+18 cm^-3,,,Ga,
Systematic_Generation,,5e+18,InAs:Ga_5.0e+18,,Inherited,,,,,,,,,DOPED_003937,,,Doped_Semiconductor,,,InAs_Ga,InAs + Ga @ 5.0e+18 cm^-3,,,Ga,
Systematic_Generation,,1e+19,InAs:Ga_1.0e+19,,Inherited,,,,,,,,,DOPED_003938,,,Doped_Semiconductor,,,InAs_Ga,InAs + Ga @ 1.0e+19 cm^-3,,,Ga,
Systematic_Generation,,5e+19,InAs:Ga_5.0e+19,,Inherited,,,,,,,,,DOPED_003939,,,Doped_Semiconductor,,,InAs_Ga,InAs + Ga @ 5.0e+19 cm^-3,,,Ga,
Systematic_Generation,,1e+20,InAs:Ga_1.0e+20,,Inherited,,,,,,,,,DOPED_003940,,,Doped_Semiconductor,,,InAs_Ga,InAs + Ga @ 1.0e+20 cm^-3,,,Ga,
Systematic_Generation,,1e+21,InAs:Ga_1.0e+21,,Inherited,,,,,,,,,DOPED_003941,,,Doped_Semiconductor,,,InAs_Ga,InAs + Ga @ 1.0e+21 cm^-3,,,Ga,
Systematic_Generation,,1000000000000000.0,InAs:In_1.0e+15,,Inherited,,,,,,,,,DOPED_003942,,,Doped_Semiconductor,,,InAs_In,InAs + In @ 1.0e+15 cm^-3,,,In,
Systematic_Generation,,5000000000000000.0,InAs:In_5.0e+15,,Inherited,,,,,,,,,DOPED_003943,,,Doped_Semiconductor,,,InAs_In,InAs + In @ 5.0e+15 cm^-3,,,In,
Systematic_Generation,,1e+16,InAs:In_1.0e+16,,Inherited,,,,,,,,,DOPED_003944,,,Doped_Semiconductor,,,InAs_In,InAs + In @ 1.0e+16 cm^-3,,,In,
Systematic_Generation,,5e+16,InAs:In_5.0e+16,,Inherited,,,,,,,,,DOPED_003945,,,Doped_Semiconductor,,,InAs_In,InAs + In @ 5.0e+16 cm^-3,,,In,
Systematic_Generation,,1e+17,InAs:In_1.0e+17,,Inherited,,,,,,,,,DOPED_003946,,,Doped_Semiconductor,,,InAs_In,InAs + In @ 1.0e+17 cm^-3,,,In,
Systematic_Generation,,5e+17,InAs:In_5.0e+17,,Inherited,,,,,,,,,DOPED_003947,,,Doped_Semiconductor,,,InAs_In,InAs + In @ 5.0e+17 cm^-3,,,In,
Systematic_Generation,,1e+18,InAs:In_1.0e+18,,Inherited,,,,,,,,,DOPED_003948,,,Doped_Semiconductor,,,InAs_In,InAs + In @ 1.0e+18 cm^-3,,,In,
Systematic_Generation,,5e+18,InAs:In_5.0e+18,,Inherited,,,,,,,,,DOPED_003949,,,Doped_Semiconductor,,,InAs_In,InAs + In @ 5.0e+18 cm^-3,,,In,
Systematic_Generation,,1e+19,InAs:In_1.0e+19,,Inherited,,,,,,,,,DOPED_003950,,,Doped_Semiconductor,,,InAs_In,InAs + In @ 1.0e+19 cm^-3,,,In,
Systematic_Generation,,5e+19,InAs:In_5.0e+19,,Inherited,,,,,,,,,DOPED_003951,,,Doped_Semiconductor,,,InAs_In,InAs + In @ 5.0e+19 cm^-3,,,In,
Systematic_Generation,,1e+20,InAs:In_1.0e+20,,Inherited,,,,,,,,,DOPED_003952,,,Doped_Semiconductor,,,InAs_In,InAs + In @ 1.0e+20 cm^-3,,,In,
Systematic_Generation,,1e+21,InAs:In_1.0e+21,,Inherited,,,,,,,,,DOPED_003953,,,Doped_Semiconductor,,,InAs_In,InAs + In @ 1.0e+21 cm^-3,,,In,
Systematic_Generation,,1000000000000000.0,InAs:Bi_1.0e+15,,Inherited,,,,,,,,,DOPED_003954,,,Doped_Semiconductor,,,InAs_Bi,InAs + Bi @ 1.0e+15 cm^-3,,,Bi,
Systematic_Generation,,5000000000000000.0,InAs:Bi_5.0e+15,,Inherited,,,,,,,,,DOPED_003955,,,Doped_Semiconductor,,,InAs_Bi,InAs + Bi @ 5.0e+15 cm^-3,,,Bi,
Systematic_Generation,,1e+16,InAs:Bi_1.0e+16,,Inherited,,,,,,,,,DOPED_003956,,,Doped_Semiconductor,,,InAs_Bi,InAs + Bi @ 1.0e+16 cm^-3,,,Bi,
Systematic_Generation,,5e+16,InAs:Bi_5.0e+16,,Inherited,,,,,,,,,DOPED_003957,,,Doped_Semiconductor,,,InAs_Bi,InAs + Bi @ 5.0e+16 cm^-3,,,Bi,
Systematic_Generation,,1e+17,InAs:Bi_1.0e+17,,Inherited,,,,,,,,,DOPED_003958,,,Doped_Semiconductor,,,InAs_Bi,InAs + Bi @ 1.0e+17 cm^-3,,,Bi,