source,n_elements,doping_concentration,name,termination,space_group,doping_level,volume_fraction,weight_percent,lattice_c,temperature,reinforcement,matrix,layers,material_id,molecular_weight,deposition_method,type,lattice_b,pdi,formula,composition,lattice_a,thickness_nm,dopant,substrate
Systematic_Generation,,,PLA_Glass_fiber_10vol,,,,0.1,,,,Glass_fiber,PLA,,COMP_007503,,,Composite,,,PLA+Glass_fiber,PLA matrix with 10% Glass_fiber,,,,
Systematic_Generation,,,PLA_Glass_fiber_15vol,,,,0.15,,,,Glass_fiber,PLA,,COMP_007504,,,Composite,,,PLA+Glass_fiber,PLA matrix with 15% Glass_fiber,,,,
Systematic_Generation,,,PLA_Glass_fiber_20vol,,,,0.2,,,,Glass_fiber,PLA,,COMP_007505,,,Composite,,,PLA+Glass_fiber,PLA matrix with 20% Glass_fiber,,,,
Systematic_Generation,,,PLA_Glass_fiber_25vol,,,,0.25,,,,Glass_fiber,PLA,,COMP_007506,,,Composite,,,PLA+Glass_fiber,PLA matrix with 25% Glass_fiber,,,,
Systematic_Generation,,,PLA_Glass_fiber_30vol,,,,0.3,,,,Glass_fiber,PLA,,COMP_007507,,,Composite,,,PLA+Glass_fiber,PLA matrix with 30% Glass_fiber,,,,
Systematic_Generation,,,PLA_Glass_fiber_40vol,,,,0.4,,,,Glass_fiber,PLA,,COMP_007508,,,Composite,,,PLA+Glass_fiber,PLA matrix with 40% Glass_fiber,,,,
Systematic_Generation,,,PLA_Glass_fiber_50vol,,,,0.5,,,,Glass_fiber,PLA,,COMP_007509,,,Composite,,,PLA+Glass_fiber,PLA matrix with 50% Glass_fiber,,,,
Systematic_Generation,,,PLA_Glass_fiber_60vol,,,,0.6,,,,Glass_fiber,PLA,,COMP_007510,,,Composite,,,PLA+Glass_fiber,PLA matrix with 60% Glass_fiber,,,,
Systematic_Generation,,,PLA_Aramid_1vol,,,,0.01,,,,Aramid,PLA,,COMP_007511,,,Composite,,,PLA+Aramid,PLA matrix with 1% Aramid,,,,
Systematic_Generation,,,PLA_Aramid_2vol,,,,0.02,,,,Aramid,PLA,,COMP_007512,,,Composite,,,PLA+Aramid,PLA matrix with 2% Aramid,,,,
Systematic_Generation,,,PLA_Aramid_5vol,,,,0.05,,,,Aramid,PLA,,COMP_007513,,,Composite,,,PLA+Aramid,PLA matrix with 5% Aramid,,,,
Systematic_Generation,,,PLA_Aramid_10vol,,,,0.1,,,,Aramid,PLA,,COMP_007514,,,Composite,,,PLA+Aramid,PLA matrix with 10% Aramid,,,,
Systematic_Generation,,,PLA_Aramid_15vol,,,,0.15,,,,Aramid,PLA,,COMP_007515,,,Composite,,,PLA+Aramid,PLA matrix with 15% Aramid,,,,
Systematic_Generation,,,PLA_Aramid_20vol,,,,0.2,,,,Aramid,PLA,,COMP_007516,,,Composite,,,PLA+Aramid,PLA matrix with 20% Aramid,,,,
Systematic_Generation,,,PLA_Aramid_25vol,,,,0.25,,,,Aramid,PLA,,COMP_007517,,,Composite,,,PLA+Aramid,PLA matrix with 25% Aramid,,,,
Systematic_Generation,,,PLA_Aramid_30vol,,,,0.3,,,,Aramid,PLA,,COMP_007518,,,Composite,,,PLA+Aramid,PLA matrix with 30% Aramid,,,,
Systematic_Generation,,,PLA_Aramid_40vol,,,,0.4,,,,Aramid,PLA,,COMP_007519,,,Composite,,,PLA+Aramid,PLA matrix with 40% Aramid,,,,
Systematic_Generation,,,PLA_Aramid_50vol,,,,0.5,,,,Aramid,PLA,,COMP_007520,,,Composite,,,PLA+Aramid,PLA matrix with 50% Aramid,,,,
Systematic_Generation,,,PLA_Aramid_60vol,,,,0.6,,,,Aramid,PLA,,COMP_007521,,,Composite,,,PLA+Aramid,PLA matrix with 60% Aramid,,,,
Systematic_Generation,,,PLA_Basalt_1vol,,,,0.01,,,,Basalt,PLA,,COMP_007522,,,Composite,,,PLA+Basalt,PLA matrix with 1% Basalt,,,,
Systematic_Generation,,,PLA_Basalt_2vol,,,,0.02,,,,Basalt,PLA,,COMP_007523,,,Composite,,,PLA+Basalt,PLA matrix with 2% Basalt,,,,
Systematic_Generation,,,PLA_Basalt_5vol,,,,0.05,,,,Basalt,PLA,,COMP_007524,,,Composite,,,PLA+Basalt,PLA matrix with 5% Basalt,,,,
Systematic_Generation,,,PLA_Basalt_10vol,,,,0.1,,,,Basalt,PLA,,COMP_007525,,,Composite,,,PLA+Basalt,PLA matrix with 10% Basalt,,,,
Systematic_Generation,,,PLA_Basalt_15vol,,,,0.15,,,,Basalt,PLA,,COMP_007526,,,Composite,,,PLA+Basalt,PLA matrix with 15% Basalt,,,,
Systematic_Generation,,,PLA_Basalt_20vol,,,,0.2,,,,Basalt,PLA,,COMP_007527,,,Composite,,,PLA+Basalt,PLA matrix with 20% Basalt,,,,
Systematic_Generation,,,PLA_Basalt_25vol,,,,0.25,,,,Basalt,PLA,,COMP_007528,,,Composite,,,PLA+Basalt,PLA matrix with 25% Basalt,,,,
Systematic_Generation,,,PLA_Basalt_30vol,,,,0.3,,,,Basalt,PLA,,COMP_007529,,,Composite,,,PLA+Basalt,PLA matrix with 30% Basalt,,,,
Systematic_Generation,,,PLA_Basalt_40vol,,,,0.4,,,,Basalt,PLA,,COMP_007530,,,Composite,,,PLA+Basalt,PLA matrix with 40% Basalt,,,,
Systematic_Generation,,,PLA_Basalt_50vol,,,,0.5,,,,Basalt,PLA,,COMP_007531,,,Composite,,,PLA+Basalt,PLA matrix with 50% Basalt,,,,
Systematic_Generation,,,PLA_Basalt_60vol,,,,0.6,,,,Basalt,PLA,,COMP_007532,,,Composite,,,PLA+Basalt,PLA matrix with 60% Basalt,,,,
Systematic_Generation,,,PLA_Natural_fiber_1vol,,,,0.01,,,,Natural_fiber,PLA,,COMP_007533,,,Composite,,,PLA+Natural_fiber,PLA matrix with 1% Natural_fiber,,,,
Systematic_Generation,,,PLA_Natural_fiber_2vol,,,,0.02,,,,Natural_fiber,PLA,,COMP_007534,,,Composite,,,PLA+Natural_fiber,PLA matrix with 2% Natural_fiber,,,,
Systematic_Generation,,,PLA_Natural_fiber_5vol,,,,0.05,,,,Natural_fiber,PLA,,COMP_007535,,,Composite,,,PLA+Natural_fiber,PLA matrix with 5% Natural_fiber,,,,
Systematic_Generation,,,PLA_Natural_fiber_10vol,,,,0.1,,,,Natural_fiber,PLA,,COMP_007536,,,Composite,,,PLA+Natural_fiber,PLA matrix with 10% Natural_fiber,,,,
Systematic_Generation,,,PLA_Natural_fiber_15vol,,,,0.15,,,,Natural_fiber,PLA,,COMP_007537,,,Composite,,,PLA+Natural_fiber,PLA matrix with 15% Natural_fiber,,,,
Systematic_Generation,,,PLA_Natural_fiber_20vol,,,,0.2,,,,Natural_fiber,PLA,,COMP_007538,,,Composite,,,PLA+Natural_fiber,PLA matrix with 20% Natural_fiber,,,,
Systematic_Generation,,,PLA_Natural_fiber_25vol,,,,0.25,,,,Natural_fiber,PLA,,COMP_007539,,,Composite,,,PLA+Natural_fiber,PLA matrix with 25% Natural_fiber,,,,
Systematic_Generation,,,PLA_Natural_fiber_30vol,,,,0.3,,,,Natural_fiber,PLA,,COMP_007540,,,Composite,,,PLA+Natural_fiber,PLA matrix with 30% Natural_fiber,,,,
Systematic_Generation,,,PLA_Natural_fiber_40vol,,,,0.4,,,,Natural_fiber,PLA,,COMP_007541,,,Composite,,,PLA+Natural_fiber,PLA matrix with 40% Natural_fiber,,,,
Systematic_Generation,,,PLA_Natural_fiber_50vol,,,,0.5,,,,Natural_fiber,PLA,,COMP_007542,,,Composite,,,PLA+Natural_fiber,PLA matrix with 50% Natural_fiber,,,,
Systematic_Generation,,,PLA_Natural_fiber_60vol,,,,0.6,,,,Natural_fiber,PLA,,COMP_007543,,,Composite,,,PLA+Natural_fiber,PLA matrix with 60% Natural_fiber,,,,
Systematic_Generation,,,PLA_Graphene_1vol,,,,0.01,,,,Graphene,PLA,,COMP_007544,,,Composite,,,PLA+Graphene,PLA matrix with 1% Graphene,,,,
Systematic_Generation,,,PLA_Graphene_2vol,,,,0.02,,,,Graphene,PLA,,COMP_007545,,,Composite,,,PLA+Graphene,PLA matrix with 2% Graphene,,,,
Systematic_Generation,,,PLA_Graphene_5vol,,,,0.05,,,,Graphene,PLA,,COMP_007546,,,Composite,,,PLA+Graphene,PLA matrix with 5% Graphene,,,,
Systematic_Generation,,,PLA_Graphene_10vol,,,,0.1,,,,Graphene,PLA,,COMP_007547,,,Composite,,,PLA+Graphene,PLA matrix with 10% Graphene,,,,
Systematic_Generation,,,PLA_Graphene_15vol,,,,0.15,,,,Graphene,PLA,,COMP_007548,,,Composite,,,PLA+Graphene,PLA matrix with 15% Graphene,,,,
Systematic_Generation,,,PLA_Graphene_20vol,,,,0.2,,,,Graphene,PLA,,COMP_007549,,,Composite,,,PLA+Graphene,PLA matrix with 20% Graphene,,,,
Systematic_Generation,,,PLA_Graphene_25vol,,,,0.25,,,,Graphene,PLA,,COMP_007550,,,Composite,,,PLA+Graphene,PLA matrix with 25% Graphene,,,,
Systematic_Generation,,,PLA_Graphene_30vol,,,,0.3,,,,Graphene,PLA,,COMP_007551,,,Composite,,,PLA+Graphene,PLA matrix with 30% Graphene,,,,
Systematic_Generation,,,PLA_Graphene_40vol,,,,0.4,,,,Graphene,PLA,,COMP_007552,,,Composite,,,PLA+Graphene,PLA matrix with 40% Graphene,,,,
Systematic_Generation,,,PLA_Graphene_50vol,,,,0.5,,,,Graphene,PLA,,COMP_007553,,,Composite,,,PLA+Graphene,PLA matrix with 50% Graphene,,,,
Systematic_Generation,,,PLA_Graphene_60vol,,,,0.6,,,,Graphene,PLA,,COMP_007554,,,Composite,,,PLA+Graphene,PLA matrix with 60% Graphene,,,,
Systematic_Generation,,,PLA_CNT_1vol,,,,0.01,,,,CNT,PLA,,COMP_007555,,,Composite,,,PLA+CNT,PLA matrix with 1% CNT,,,,
Systematic_Generation,,,PLA_CNT_2vol,,,,0.02,,,,CNT,PLA,,COMP_007556,,,Composite,,,PLA+CNT,PLA matrix with 2% CNT,,,,
Systematic_Generation,,,PLA_CNT_5vol,,,,0.05,,,,CNT,PLA,,COMP_007557,,,Composite,,,PLA+CNT,PLA matrix with 5% CNT,,,,
Systematic_Generation,,,PLA_CNT_10vol,,,,0.1,,,,CNT,PLA,,COMP_007558,,,Composite,,,PLA+CNT,PLA matrix with 10% CNT,,,,
Systematic_Generation,,,PLA_CNT_15vol,,,,0.15,,,,CNT,PLA,,COMP_007559,,,Composite,,,PLA+CNT,PLA matrix with 15% CNT,,,,
Systematic_Generation,,,PLA_CNT_20vol,,,,0.2,,,,CNT,PLA,,COMP_007560,,,Composite,,,PLA+CNT,PLA matrix with 20% CNT,,,,
Systematic_Generation,,,PLA_CNT_25vol,,,,0.25,,,,CNT,PLA,,COMP_007561,,,Composite,,,PLA+CNT,PLA matrix with 25% CNT,,,,
Systematic_Generation,,,PLA_CNT_30vol,,,,0.3,,,,CNT,PLA,,COMP_007562,,,Composite,,,PLA+CNT,PLA matrix with 30% CNT,,,,
Systematic_Generation,,,PLA_CNT_40vol,,,,0.4,,,,CNT,PLA,,COMP_007563,,,Composite,,,PLA+CNT,PLA matrix with 40% CNT,,,,
Systematic_Generation,,,PLA_CNT_50vol,,,,0.5,,,,CNT,PLA,,COMP_007564,,,Composite,,,PLA+CNT,PLA matrix with 50% CNT,,,,
Systematic_Generation,,,PLA_CNT_60vol,,,,0.6,,,,CNT,PLA,,COMP_007565,,,Composite,,,PLA+CNT,PLA matrix with 60% CNT,,,,
Systematic_Generation,,,PLA_SiC_particles_1vol,,,,0.01,,,,SiC_particles,PLA,,COMP_007566,,,Composite,,,PLA+SiC_particles,PLA matrix with 1% SiC_particles,,,,
Systematic_Generation,,,PLA_SiC_particles_2vol,,,,0.02,,,,SiC_particles,PLA,,COMP_007567,,,Composite,,,PLA+SiC_particles,PLA matrix with 2% SiC_particles,,,,
Systematic_Generation,,,PLA_SiC_particles_5vol,,,,0.05,,,,SiC_particles,PLA,,COMP_007568,,,Composite,,,PLA+SiC_particles,PLA matrix with 5% SiC_particles,,,,
Systematic_Generation,,,PLA_SiC_particles_10vol,,,,0.1,,,,SiC_particles,PLA,,COMP_007569,,,Composite,,,PLA+SiC_particles,PLA matrix with 10% SiC_particles,,,,
Systematic_Generation,,,PLA_SiC_particles_15vol,,,,0.15,,,,SiC_particles,PLA,,COMP_007570,,,Composite,,,PLA+SiC_particles,PLA matrix with 15% SiC_particles,,,,
Systematic_Generation,,,PLA_SiC_particles_20vol,,,,0.2,,,,SiC_particles,PLA,,COMP_007571,,,Composite,,,PLA+SiC_particles,PLA matrix with 20% SiC_particles,,,,
Systematic_Generation,,,PLA_SiC_particles_25vol,,,,0.25,,,,SiC_particles,PLA,,COMP_007572,,,Composite,,,PLA+SiC_particles,PLA matrix with 25% SiC_particles,,,,
Systematic_Generation,,,PLA_SiC_particles_30vol,,,,0.3,,,,SiC_particles,PLA,,COMP_007573,,,Composite,,,PLA+SiC_particles,PLA matrix with 30% SiC_particles,,,,
Systematic_Generation,,,PLA_SiC_particles_40vol,,,,0.4,,,,SiC_particles,PLA,,COMP_007574,,,Composite,,,PLA+SiC_particles,PLA matrix with 40% SiC_particles,,,,
Systematic_Generation,,,PLA_SiC_particles_50vol,,,,0.5,,,,SiC_particles,PLA,,COMP_007575,,,Composite,,,PLA+SiC_particles,PLA matrix with 50% SiC_particles,,,,
Systematic_Generation,,,PLA_SiC_particles_60vol,,,,0.6,,,,SiC_particles,PLA,,COMP_007576,,,Composite,,,PLA+SiC_particles,PLA matrix with 60% SiC_particles,,,,
Systematic_Generation,,,PLA_Al2O3_particles_1vol,,,,0.01,,,,Al2O3_particles,PLA,,COMP_007577,,,Composite,,,PLA+Al2O3_particles,PLA matrix with 1% Al2O3_particles,,,,
Systematic_Generation,,,PLA_Al2O3_particles_2vol,,,,0.02,,,,Al2O3_particles,PLA,,COMP_007578,,,Composite,,,PLA+Al2O3_particles,PLA matrix with 2% Al2O3_particles,,,,
Systematic_Generation,,,PLA_Al2O3_particles_5vol,,,,0.05,,,,Al2O3_particles,PLA,,COMP_007579,,,Composite,,,PLA+Al2O3_particles,PLA matrix with 5% Al2O3_particles,,,,
Systematic_Generation,,,PLA_Al2O3_particles_10vol,,,,0.1,,,,Al2O3_particles,PLA,,COMP_007580,,,Composite,,,PLA+Al2O3_particles,PLA matrix with 10% Al2O3_particles,,,,
Systematic_Generation,,,PLA_Al2O3_particles_15vol,,,,0.15,,,,Al2O3_particles,PLA,,COMP_007581,,,Composite,,,PLA+Al2O3_particles,PLA matrix with 15% Al2O3_particles,,,,
Systematic_Generation,,,PLA_Al2O3_particles_20vol,,,,0.2,,,,Al2O3_particles,PLA,,COMP_007582,,,Composite,,,PLA+Al2O3_particles,PLA matrix with 20% Al2O3_particles,,,,
Systematic_Generation,,,PLA_Al2O3_particles_25vol,,,,0.25,,,,Al2O3_particles,PLA,,COMP_007583,,,Composite,,,PLA+Al2O3_particles,PLA matrix with 25% Al2O3_particles,,,,
Systematic_Generation,,,PLA_Al2O3_particles_30vol,,,,0.3,,,,Al2O3_particles,PLA,,COMP_007584,,,Composite,,,PLA+Al2O3_particles,PLA matrix with 30% Al2O3_particles,,,,
Systematic_Generation,,,PLA_Al2O3_particles_40vol,,,,0.4,,,,Al2O3_particles,PLA,,COMP_007585,,,Composite,,,PLA+Al2O3_particles,PLA matrix with 40% Al2O3_particles,,,,
Systematic_Generation,,,PLA_Al2O3_particles_50vol,,,,0.5,,,,Al2O3_particles,PLA,,COMP_007586,,,Composite,,,PLA+Al2O3_particles,PLA matrix with 50% Al2O3_particles,,,,
Systematic_Generation,,,PLA_Al2O3_particles_60vol,,,,0.6,,,,Al2O3_particles,PLA,,COMP_007587,,,Composite,,,PLA+Al2O3_particles,PLA matrix with 60% Al2O3_particles,,,,
Systematic_Generation,,,PLA_TiO2_particles_1vol,,,,0.01,,,,TiO2_particles,PLA,,COMP_007588,,,Composite,,,PLA+TiO2_particles,PLA matrix with 1% TiO2_particles,,,,
Systematic_Generation,,,PLA_TiO2_particles_2vol,,,,0.02,,,,TiO2_particles,PLA,,COMP_007589,,,Composite,,,PLA+TiO2_particles,PLA matrix with 2% TiO2_particles,,,,
Systematic_Generation,,,PLA_TiO2_particles_5vol,,,,0.05,,,,TiO2_particles,PLA,,COMP_007590,,,Composite,,,PLA+TiO2_particles,PLA matrix with 5% TiO2_particles,,,,
Systematic_Generation,,,PLA_TiO2_particles_10vol,,,,0.1,,,,TiO2_particles,PLA,,COMP_007591,,,Composite,,,PLA+TiO2_particles,PLA matrix with 10% TiO2_particles,,,,
Systematic_Generation,,,PLA_TiO2_particles_15vol,,,,0.15,,,,TiO2_particles,PLA,,COMP_007592,,,Composite,,,PLA+TiO2_particles,PLA matrix with 15% TiO2_particles,,,,
Systematic_Generation,,,PLA_TiO2_particles_20vol,,,,0.2,,,,TiO2_particles,PLA,,COMP_007593,,,Composite,,,PLA+TiO2_particles,PLA matrix with 20% TiO2_particles,,,,
Systematic_Generation,,,PLA_TiO2_particles_25vol,,,,0.25,,,,TiO2_particles,PLA,,COMP_007594,,,Composite,,,PLA+TiO2_particles,PLA matrix with 25% TiO2_particles,,,,
Systematic_Generation,,,PLA_TiO2_particles_30vol,,,,0.3,,,,TiO2_particles,PLA,,COMP_007595,,,Composite,,,PLA+TiO2_particles,PLA matrix with 30% TiO2_particles,,,,
Systematic_Generation,,,PLA_TiO2_particles_40vol,,,,0.4,,,,TiO2_particles,PLA,,COMP_007596,,,Composite,,,PLA+TiO2_particles,PLA matrix with 40% TiO2_particles,,,,
Systematic_Generation,,,PLA_TiO2_particles_50vol,,,,0.5,,,,TiO2_particles,PLA,,COMP_007597,,,Composite,,,PLA+TiO2_particles,PLA matrix with 50% TiO2_particles,,,,
Systematic_Generation,,,PLA_TiO2_particles_60vol,,,,0.6,,,,TiO2_particles,PLA,,COMP_007598,,,Composite,,,PLA+TiO2_particles,PLA matrix with 60% TiO2_particles,,,,
Systematic_Generation,,,PLA_ZnO_1vol,,,,0.01,,,,ZnO,PLA,,COMP_007599,,,Composite,,,PLA+ZnO,PLA matrix with 1% ZnO,,,,
Systematic_Generation,,,PLA_ZnO_2vol,,,,0.02,,,,ZnO,PLA,,COMP_007600,,,Composite,,,PLA+ZnO,PLA matrix with 2% ZnO,,,,
Systematic_Generation,,,PLA_ZnO_5vol,,,,0.05,,,,ZnO,PLA,,COMP_007601,,,Composite,,,PLA+ZnO,PLA matrix with 5% ZnO,,,,
Systematic_Generation,,,PLA_ZnO_10vol,,,,0.1,,,,ZnO,PLA,,COMP_007602,,,Composite,,,PLA+ZnO,PLA matrix with 10% ZnO,,,,
Systematic_Generation,,,PLA_ZnO_15vol,,,,0.15,,,,ZnO,PLA,,COMP_007603,,,Composite,,,PLA+ZnO,PLA matrix with 15% ZnO,,,,
Systematic_Generation,,,PLA_ZnO_20vol,,,,0.2,,,,ZnO,PLA,,COMP_007604,,,Composite,,,PLA+ZnO,PLA matrix with 20% ZnO,,,,
Systematic_Generation,,,PLA_ZnO_25vol,,,,0.25,,,,ZnO,PLA,,COMP_007605,,,Composite,,,PLA+ZnO,PLA matrix with 25% ZnO,,,,
Systematic_Generation,,,PLA_ZnO_30vol,,,,0.3,,,,ZnO,PLA,,COMP_007606,,,Composite,,,PLA+ZnO,PLA matrix with 30% ZnO,,,,
Systematic_Generation,,,PLA_ZnO_40vol,,,,0.4,,,,ZnO,PLA,,COMP_007607,,,Composite,,,PLA+ZnO,PLA matrix with 40% ZnO,,,,
Systematic_Generation,,,PLA_ZnO_50vol,,,,0.5,,,,ZnO,PLA,,COMP_007608,,,Composite,,,PLA+ZnO,PLA matrix with 50% ZnO,,,,
Systematic_Generation,,,PLA_ZnO_60vol,,,,0.6,,,,ZnO,PLA,,COMP_007609,,,Composite,,,PLA+ZnO,PLA matrix with 60% ZnO,,,,
Systematic_Generation,,,PLA_SiC_whisker_1vol,,,,0.01,,,,SiC_whisker,PLA,,COMP_007610,,,Composite,,,PLA+SiC_whisker,PLA matrix with 1% SiC_whisker,,,,
Systematic_Generation,,,PLA_SiC_whisker_2vol,,,,0.02,,,,SiC_whisker,PLA,,COMP_007611,,,Composite,,,PLA+SiC_whisker,PLA matrix with 2% SiC_whisker,,,,
Systematic_Generation,,,PLA_SiC_whisker_5vol,,,,0.05,,,,SiC_whisker,PLA,,COMP_007612,,,Composite,,,PLA+SiC_whisker,PLA matrix with 5% SiC_whisker,,,,
Systematic_Generation,,,PLA_SiC_whisker_10vol,,,,0.1,,,,SiC_whisker,PLA,,COMP_007613,,,Composite,,,PLA+SiC_whisker,PLA matrix with 10% SiC_whisker,,,,
Systematic_Generation,,,PLA_SiC_whisker_15vol,,,,0.15,,,,SiC_whisker,PLA,,COMP_007614,,,Composite,,,PLA+SiC_whisker,PLA matrix with 15% SiC_whisker,,,,
Systematic_Generation,,,PLA_SiC_whisker_20vol,,,,0.2,,,,SiC_whisker,PLA,,COMP_007615,,,Composite,,,PLA+SiC_whisker,PLA matrix with 20% SiC_whisker,,,,
Systematic_Generation,,,PLA_SiC_whisker_25vol,,,,0.25,,,,SiC_whisker,PLA,,COMP_007616,,,Composite,,,PLA+SiC_whisker,PLA matrix with 25% SiC_whisker,,,,
Systematic_Generation,,,PLA_SiC_whisker_30vol,,,,0.3,,,,SiC_whisker,PLA,,COMP_007617,,,Composite,,,PLA+SiC_whisker,PLA matrix with 30% SiC_whisker,,,,
Systematic_Generation,,,PLA_SiC_whisker_40vol,,,,0.4,,,,SiC_whisker,PLA,,COMP_007618,,,Composite,,,PLA+SiC_whisker,PLA matrix with 40% SiC_whisker,,,,
Systematic_Generation,,,PLA_SiC_whisker_50vol,,,,0.5,,,,SiC_whisker,PLA,,COMP_007619,,,Composite,,,PLA+SiC_whisker,PLA matrix with 50% SiC_whisker,,,,
Systematic_Generation,,,PLA_SiC_whisker_60vol,,,,0.6,,,,SiC_whisker,PLA,,COMP_007620,,,Composite,,,PLA+SiC_whisker,PLA matrix with 60% SiC_whisker,,,,
Systematic_Generation,,,PLA_Al2O3_whisker_1vol,,,,0.01,,,,Al2O3_whisker,PLA,,COMP_007621,,,Composite,,,PLA+Al2O3_whisker,PLA matrix with 1% Al2O3_whisker,,,,
Systematic_Generation,,,PLA_Al2O3_whisker_2vol,,,,0.02,,,,Al2O3_whisker,PLA,,COMP_007622,,,Composite,,,PLA+Al2O3_whisker,PLA matrix with 2% Al2O3_whisker,,,,
Systematic_Generation,,,PLA_Al2O3_whisker_5vol,,,,0.05,,,,Al2O3_whisker,PLA,,COMP_007623,,,Composite,,,PLA+Al2O3_whisker,PLA matrix with 5% Al2O3_whisker,,,,
Systematic_Generation,,,PLA_Al2O3_whisker_10vol,,,,0.1,,,,Al2O3_whisker,PLA,,COMP_007624,,,Composite,,,PLA+Al2O3_whisker,PLA matrix with 10% Al2O3_whisker,,,,
Systematic_Generation,,,PLA_Al2O3_whisker_15vol,,,,0.15,,,,Al2O3_whisker,PLA,,COMP_007625,,,Composite,,,PLA+Al2O3_whisker,PLA matrix with 15% Al2O3_whisker,,,,
Systematic_Generation,,,PLA_Al2O3_whisker_20vol,,,,0.2,,,,Al2O3_whisker,PLA,,COMP_007626,,,Composite,,,PLA+Al2O3_whisker,PLA matrix with 20% Al2O3_whisker,,,,
Systematic_Generation,,,PLA_Al2O3_whisker_25vol,,,,0.25,,,,Al2O3_whisker,PLA,,COMP_007627,,,Composite,,,PLA+Al2O3_whisker,PLA matrix with 25% Al2O3_whisker,,,,
Systematic_Generation,,,PLA_Al2O3_whisker_30vol,,,,0.3,,,,Al2O3_whisker,PLA,,COMP_007628,,,Composite,,,PLA+Al2O3_whisker,PLA matrix with 30% Al2O3_whisker,,,,
Systematic_Generation,,,PLA_Al2O3_whisker_40vol,,,,0.4,,,,Al2O3_whisker,PLA,,COMP_007629,,,Composite,,,PLA+Al2O3_whisker,PLA matrix with 40% Al2O3_whisker,,,,
Systematic_Generation,,,PLA_Al2O3_whisker_50vol,,,,0.5,,,,Al2O3_whisker,PLA,,COMP_007630,,,Composite,,,PLA+Al2O3_whisker,PLA matrix with 50% Al2O3_whisker,,,,
Systematic_Generation,,,PLA_Al2O3_whisker_60vol,,,,0.6,,,,Al2O3_whisker,PLA,,COMP_007631,,,Composite,,,PLA+Al2O3_whisker,PLA matrix with 60% Al2O3_whisker,,,,
Systematic_Generation,,,PLA_Si3N4_whisker_1vol,,,,0.01,,,,Si3N4_whisker,PLA,,COMP_007632,,,Composite,,,PLA+Si3N4_whisker,PLA matrix with 1% Si3N4_whisker,,,,
Systematic_Generation,,,PLA_Si3N4_whisker_2vol,,,,0.02,,,,Si3N4_whisker,PLA,,COMP_007633,,,Composite,,,PLA+Si3N4_whisker,PLA matrix with 2% Si3N4_whisker,,,,
Systematic_Generation,,,PLA_Si3N4_whisker_5vol,,,,0.05,,,,Si3N4_whisker,PLA,,COMP_007634,,,Composite,,,PLA+Si3N4_whisker,PLA matrix with 5% Si3N4_whisker,,,,
Systematic_Generation,,,PLA_Si3N4_whisker_10vol,,,,0.1,,,,Si3N4_whisker,PLA,,COMP_007635,,,Composite,,,PLA+Si3N4_whisker,PLA matrix with 10% Si3N4_whisker,,,,
Systematic_Generation,,,PLA_Si3N4_whisker_15vol,,,,0.15,,,,Si3N4_whisker,PLA,,COMP_007636,,,Composite,,,PLA+Si3N4_whisker,PLA matrix with 15% Si3N4_whisker,,,,