source,n_elements,doping_concentration,name,termination,space_group,doping_level,volume_fraction,weight_percent,lattice_c,temperature,reinforcement,matrix,layers,material_id,molecular_weight,deposition_method,type,lattice_b,pdi,formula,composition,lattice_a,thickness_nm,dopant,substrate
Systematic_Generation,,1000000000000000.0,InSb:In_1.0e+15,,Inherited,,,,,,,,,DOPED_004098,,,Doped_Semiconductor,,,InSb_In,InSb + In @ 1.0e+15 cm^-3,,,In,
Systematic_Generation,,5000000000000000.0,InSb:In_5.0e+15,,Inherited,,,,,,,,,DOPED_004099,,,Doped_Semiconductor,,,InSb_In,InSb + In @ 5.0e+15 cm^-3,,,In,
Systematic_Generation,,1e+16,InSb:In_1.0e+16,,Inherited,,,,,,,,,DOPED_004100,,,Doped_Semiconductor,,,InSb_In,InSb + In @ 1.0e+16 cm^-3,,,In,
Systematic_Generation,,5e+16,InSb:In_5.0e+16,,Inherited,,,,,,,,,DOPED_004101,,,Doped_Semiconductor,,,InSb_In,InSb + In @ 5.0e+16 cm^-3,,,In,
Systematic_Generation,,1e+17,InSb:In_1.0e+17,,Inherited,,,,,,,,,DOPED_004102,,,Doped_Semiconductor,,,InSb_In,InSb + In @ 1.0e+17 cm^-3,,,In,
Systematic_Generation,,5e+17,InSb:In_5.0e+17,,Inherited,,,,,,,,,DOPED_004103,,,Doped_Semiconductor,,,InSb_In,InSb + In @ 5.0e+17 cm^-3,,,In,
Systematic_Generation,,1e+18,InSb:In_1.0e+18,,Inherited,,,,,,,,,DOPED_004104,,,Doped_Semiconductor,,,InSb_In,InSb + In @ 1.0e+18 cm^-3,,,In,
Systematic_Generation,,5e+18,InSb:In_5.0e+18,,Inherited,,,,,,,,,DOPED_004105,,,Doped_Semiconductor,,,InSb_In,InSb + In @ 5.0e+18 cm^-3,,,In,
Systematic_Generation,,1e+19,InSb:In_1.0e+19,,Inherited,,,,,,,,,DOPED_004106,,,Doped_Semiconductor,,,InSb_In,InSb + In @ 1.0e+19 cm^-3,,,In,
Systematic_Generation,,5e+19,InSb:In_5.0e+19,,Inherited,,,,,,,,,DOPED_004107,,,Doped_Semiconductor,,,InSb_In,InSb + In @ 5.0e+19 cm^-3,,,In,
Systematic_Generation,,1e+20,InSb:In_1.0e+20,,Inherited,,,,,,,,,DOPED_004108,,,Doped_Semiconductor,,,InSb_In,InSb + In @ 1.0e+20 cm^-3,,,In,
Systematic_Generation,,1e+21,InSb:In_1.0e+21,,Inherited,,,,,,,,,DOPED_004109,,,Doped_Semiconductor,,,InSb_In,InSb + In @ 1.0e+21 cm^-3,,,In,
Systematic_Generation,,1000000000000000.0,InSb:Bi_1.0e+15,,Inherited,,,,,,,,,DOPED_004110,,,Doped_Semiconductor,,,InSb_Bi,InSb + Bi @ 1.0e+15 cm^-3,,,Bi,
Systematic_Generation,,5000000000000000.0,InSb:Bi_5.0e+15,,Inherited,,,,,,,,,DOPED_004111,,,Doped_Semiconductor,,,InSb_Bi,InSb + Bi @ 5.0e+15 cm^-3,,,Bi,
Systematic_Generation,,1e+16,InSb:Bi_1.0e+16,,Inherited,,,,,,,,,DOPED_004112,,,Doped_Semiconductor,,,InSb_Bi,InSb + Bi @ 1.0e+16 cm^-3,,,Bi,
Systematic_Generation,,5e+16,InSb:Bi_5.0e+16,,Inherited,,,,,,,,,DOPED_004113,,,Doped_Semiconductor,,,InSb_Bi,InSb + Bi @ 5.0e+16 cm^-3,,,Bi,
Systematic_Generation,,1e+17,InSb:Bi_1.0e+17,,Inherited,,,,,,,,,DOPED_004114,,,Doped_Semiconductor,,,InSb_Bi,InSb + Bi @ 1.0e+17 cm^-3,,,Bi,
Systematic_Generation,,5e+17,InSb:Bi_5.0e+17,,Inherited,,,,,,,,,DOPED_004115,,,Doped_Semiconductor,,,InSb_Bi,InSb + Bi @ 5.0e+17 cm^-3,,,Bi,
Systematic_Generation,,1e+18,InSb:Bi_1.0e+18,,Inherited,,,,,,,,,DOPED_004116,,,Doped_Semiconductor,,,InSb_Bi,InSb + Bi @ 1.0e+18 cm^-3,,,Bi,
Systematic_Generation,,5e+18,InSb:Bi_5.0e+18,,Inherited,,,,,,,,,DOPED_004117,,,Doped_Semiconductor,,,InSb_Bi,InSb + Bi @ 5.0e+18 cm^-3,,,Bi,
Systematic_Generation,,1e+19,InSb:Bi_1.0e+19,,Inherited,,,,,,,,,DOPED_004118,,,Doped_Semiconductor,,,InSb_Bi,InSb + Bi @ 1.0e+19 cm^-3,,,Bi,
Systematic_Generation,,5e+19,InSb:Bi_5.0e+19,,Inherited,,,,,,,,,DOPED_004119,,,Doped_Semiconductor,,,InSb_Bi,InSb + Bi @ 5.0e+19 cm^-3,,,Bi,
Systematic_Generation,,1e+20,InSb:Bi_1.0e+20,,Inherited,,,,,,,,,DOPED_004120,,,Doped_Semiconductor,,,InSb_Bi,InSb + Bi @ 1.0e+20 cm^-3,,,Bi,
Systematic_Generation,,1e+21,InSb:Bi_1.0e+21,,Inherited,,,,,,,,,DOPED_004121,,,Doped_Semiconductor,,,InSb_Bi,InSb + Bi @ 1.0e+21 cm^-3,,,Bi,
Systematic_Generation,,1000000000000000.0,InSb:Li_1.0e+15,,Inherited,,,,,,,,,DOPED_004122,,,Doped_Semiconductor,,,InSb_Li,InSb + Li @ 1.0e+15 cm^-3,,,Li,
Systematic_Generation,,5000000000000000.0,InSb:Li_5.0e+15,,Inherited,,,,,,,,,DOPED_004123,,,Doped_Semiconductor,,,InSb_Li,InSb + Li @ 5.0e+15 cm^-3,,,Li,
Systematic_Generation,,1e+16,InSb:Li_1.0e+16,,Inherited,,,,,,,,,DOPED_004124,,,Doped_Semiconductor,,,InSb_Li,InSb + Li @ 1.0e+16 cm^-3,,,Li,
Systematic_Generation,,5e+16,InSb:Li_5.0e+16,,Inherited,,,,,,,,,DOPED_004125,,,Doped_Semiconductor,,,InSb_Li,InSb + Li @ 5.0e+16 cm^-3,,,Li,
Systematic_Generation,,1e+17,InSb:Li_1.0e+17,,Inherited,,,,,,,,,DOPED_004126,,,Doped_Semiconductor,,,InSb_Li,InSb + Li @ 1.0e+17 cm^-3,,,Li,
Systematic_Generation,,5e+17,InSb:Li_5.0e+17,,Inherited,,,,,,,,,DOPED_004127,,,Doped_Semiconductor,,,InSb_Li,InSb + Li @ 5.0e+17 cm^-3,,,Li,
Systematic_Generation,,1e+18,InSb:Li_1.0e+18,,Inherited,,,,,,,,,DOPED_004128,,,Doped_Semiconductor,,,InSb_Li,InSb + Li @ 1.0e+18 cm^-3,,,Li,
Systematic_Generation,,5e+18,InSb:Li_5.0e+18,,Inherited,,,,,,,,,DOPED_004129,,,Doped_Semiconductor,,,InSb_Li,InSb + Li @ 5.0e+18 cm^-3,,,Li,
Systematic_Generation,,1e+19,InSb:Li_1.0e+19,,Inherited,,,,,,,,,DOPED_004130,,,Doped_Semiconductor,,,InSb_Li,InSb + Li @ 1.0e+19 cm^-3,,,Li,
Systematic_Generation,,5e+19,InSb:Li_5.0e+19,,Inherited,,,,,,,,,DOPED_004131,,,Doped_Semiconductor,,,InSb_Li,InSb + Li @ 5.0e+19 cm^-3,,,Li,
Systematic_Generation,,1e+20,InSb:Li_1.0e+20,,Inherited,,,,,,,,,DOPED_004132,,,Doped_Semiconductor,,,InSb_Li,InSb + Li @ 1.0e+20 cm^-3,,,Li,
Systematic_Generation,,1e+21,InSb:Li_1.0e+21,,Inherited,,,,,,,,,DOPED_004133,,,Doped_Semiconductor,,,InSb_Li,InSb + Li @ 1.0e+21 cm^-3,,,Li,
Systematic_Generation,,1000000000000000.0,InSb:S_1.0e+15,,Inherited,,,,,,,,,DOPED_004134,,,Doped_Semiconductor,,,InSb_S,InSb + S @ 1.0e+15 cm^-3,,,S,
Systematic_Generation,,5000000000000000.0,InSb:S_5.0e+15,,Inherited,,,,,,,,,DOPED_004135,,,Doped_Semiconductor,,,InSb_S,InSb + S @ 5.0e+15 cm^-3,,,S,
Systematic_Generation,,1e+16,InSb:S_1.0e+16,,Inherited,,,,,,,,,DOPED_004136,,,Doped_Semiconductor,,,InSb_S,InSb + S @ 1.0e+16 cm^-3,,,S,
Systematic_Generation,,5e+16,InSb:S_5.0e+16,,Inherited,,,,,,,,,DOPED_004137,,,Doped_Semiconductor,,,InSb_S,InSb + S @ 5.0e+16 cm^-3,,,S,
Systematic_Generation,,1e+17,InSb:S_1.0e+17,,Inherited,,,,,,,,,DOPED_004138,,,Doped_Semiconductor,,,InSb_S,InSb + S @ 1.0e+17 cm^-3,,,S,
Systematic_Generation,,5e+17,InSb:S_5.0e+17,,Inherited,,,,,,,,,DOPED_004139,,,Doped_Semiconductor,,,InSb_S,InSb + S @ 5.0e+17 cm^-3,,,S,
Systematic_Generation,,1e+18,InSb:S_1.0e+18,,Inherited,,,,,,,,,DOPED_004140,,,Doped_Semiconductor,,,InSb_S,InSb + S @ 1.0e+18 cm^-3,,,S,
Systematic_Generation,,5e+18,InSb:S_5.0e+18,,Inherited,,,,,,,,,DOPED_004141,,,Doped_Semiconductor,,,InSb_S,InSb + S @ 5.0e+18 cm^-3,,,S,
Systematic_Generation,,1e+19,InSb:S_1.0e+19,,Inherited,,,,,,,,,DOPED_004142,,,Doped_Semiconductor,,,InSb_S,InSb + S @ 1.0e+19 cm^-3,,,S,
Systematic_Generation,,5e+19,InSb:S_5.0e+19,,Inherited,,,,,,,,,DOPED_004143,,,Doped_Semiconductor,,,InSb_S,InSb + S @ 5.0e+19 cm^-3,,,S,
Systematic_Generation,,1e+20,InSb:S_1.0e+20,,Inherited,,,,,,,,,DOPED_004144,,,Doped_Semiconductor,,,InSb_S,InSb + S @ 1.0e+20 cm^-3,,,S,
Systematic_Generation,,1e+21,InSb:S_1.0e+21,,Inherited,,,,,,,,,DOPED_004145,,,Doped_Semiconductor,,,InSb_S,InSb + S @ 1.0e+21 cm^-3,,,S,
Systematic_Generation,,1000000000000000.0,InSb:Se_1.0e+15,,Inherited,,,,,,,,,DOPED_004146,,,Doped_Semiconductor,,,InSb_Se,InSb + Se @ 1.0e+15 cm^-3,,,Se,
Systematic_Generation,,5000000000000000.0,InSb:Se_5.0e+15,,Inherited,,,,,,,,,DOPED_004147,,,Doped_Semiconductor,,,InSb_Se,InSb + Se @ 5.0e+15 cm^-3,,,Se,
Systematic_Generation,,1e+16,InSb:Se_1.0e+16,,Inherited,,,,,,,,,DOPED_004148,,,Doped_Semiconductor,,,InSb_Se,InSb + Se @ 1.0e+16 cm^-3,,,Se,
Systematic_Generation,,5e+16,InSb:Se_5.0e+16,,Inherited,,,,,,,,,DOPED_004149,,,Doped_Semiconductor,,,InSb_Se,InSb + Se @ 5.0e+16 cm^-3,,,Se,
Systematic_Generation,,1e+17,InSb:Se_1.0e+17,,Inherited,,,,,,,,,DOPED_004150,,,Doped_Semiconductor,,,InSb_Se,InSb + Se @ 1.0e+17 cm^-3,,,Se,
Systematic_Generation,,5e+17,InSb:Se_5.0e+17,,Inherited,,,,,,,,,DOPED_004151,,,Doped_Semiconductor,,,InSb_Se,InSb + Se @ 5.0e+17 cm^-3,,,Se,
Systematic_Generation,,1e+18,InSb:Se_1.0e+18,,Inherited,,,,,,,,,DOPED_004152,,,Doped_Semiconductor,,,InSb_Se,InSb + Se @ 1.0e+18 cm^-3,,,Se,
Systematic_Generation,,5e+18,InSb:Se_5.0e+18,,Inherited,,,,,,,,,DOPED_004153,,,Doped_Semiconductor,,,InSb_Se,InSb + Se @ 5.0e+18 cm^-3,,,Se,
Systematic_Generation,,1e+19,InSb:Se_1.0e+19,,Inherited,,,,,,,,,DOPED_004154,,,Doped_Semiconductor,,,InSb_Se,InSb + Se @ 1.0e+19 cm^-3,,,Se,
Systematic_Generation,,5e+19,InSb:Se_5.0e+19,,Inherited,,,,,,,,,DOPED_004155,,,Doped_Semiconductor,,,InSb_Se,InSb + Se @ 5.0e+19 cm^-3,,,Se,
Systematic_Generation,,1e+20,InSb:Se_1.0e+20,,Inherited,,,,,,,,,DOPED_004156,,,Doped_Semiconductor,,,InSb_Se,InSb + Se @ 1.0e+20 cm^-3,,,Se,
Systematic_Generation,,1e+21,InSb:Se_1.0e+21,,Inherited,,,,,,,,,DOPED_004157,,,Doped_Semiconductor,,,InSb_Se,InSb + Se @ 1.0e+21 cm^-3,,,Se,
Systematic_Generation,,1000000000000000.0,InSb:Te_1.0e+15,,Inherited,,,,,,,,,DOPED_004158,,,Doped_Semiconductor,,,InSb_Te,InSb + Te @ 1.0e+15 cm^-3,,,Te,
Systematic_Generation,,5000000000000000.0,InSb:Te_5.0e+15,,Inherited,,,,,,,,,DOPED_004159,,,Doped_Semiconductor,,,InSb_Te,InSb + Te @ 5.0e+15 cm^-3,,,Te,
Systematic_Generation,,1e+16,InSb:Te_1.0e+16,,Inherited,,,,,,,,,DOPED_004160,,,Doped_Semiconductor,,,InSb_Te,InSb + Te @ 1.0e+16 cm^-3,,,Te,
Systematic_Generation,,5e+16,InSb:Te_5.0e+16,,Inherited,,,,,,,,,DOPED_004161,,,Doped_Semiconductor,,,InSb_Te,InSb + Te @ 5.0e+16 cm^-3,,,Te,
Systematic_Generation,,1e+17,InSb:Te_1.0e+17,,Inherited,,,,,,,,,DOPED_004162,,,Doped_Semiconductor,,,InSb_Te,InSb + Te @ 1.0e+17 cm^-3,,,Te,
Systematic_Generation,,5e+17,InSb:Te_5.0e+17,,Inherited,,,,,,,,,DOPED_004163,,,Doped_Semiconductor,,,InSb_Te,InSb + Te @ 5.0e+17 cm^-3,,,Te,
Systematic_Generation,,1e+18,InSb:Te_1.0e+18,,Inherited,,,,,,,,,DOPED_004164,,,Doped_Semiconductor,,,InSb_Te,InSb + Te @ 1.0e+18 cm^-3,,,Te,
Systematic_Generation,,5e+18,InSb:Te_5.0e+18,,Inherited,,,,,,,,,DOPED_004165,,,Doped_Semiconductor,,,InSb_Te,InSb + Te @ 5.0e+18 cm^-3,,,Te,
Systematic_Generation,,1e+19,InSb:Te_1.0e+19,,Inherited,,,,,,,,,DOPED_004166,,,Doped_Semiconductor,,,InSb_Te,InSb + Te @ 1.0e+19 cm^-3,,,Te,
Systematic_Generation,,5e+19,InSb:Te_5.0e+19,,Inherited,,,,,,,,,DOPED_004167,,,Doped_Semiconductor,,,InSb_Te,InSb + Te @ 5.0e+19 cm^-3,,,Te,
Systematic_Generation,,1e+20,InSb:Te_1.0e+20,,Inherited,,,,,,,,,DOPED_004168,,,Doped_Semiconductor,,,InSb_Te,InSb + Te @ 1.0e+20 cm^-3,,,Te,
Systematic_Generation,,1e+21,InSb:Te_1.0e+21,,Inherited,,,,,,,,,DOPED_004169,,,Doped_Semiconductor,,,InSb_Te,InSb + Te @ 1.0e+21 cm^-3,,,Te,
Systematic_Generation,,1000000000000000.0,AlAs:B_1.0e+15,,Inherited,,,,,,,,,DOPED_004170,,,Doped_Semiconductor,,,AlAs_B,AlAs + B @ 1.0e+15 cm^-3,,,B,
Systematic_Generation,,5000000000000000.0,AlAs:B_5.0e+15,,Inherited,,,,,,,,,DOPED_004171,,,Doped_Semiconductor,,,AlAs_B,AlAs + B @ 5.0e+15 cm^-3,,,B,
Systematic_Generation,,1e+16,AlAs:B_1.0e+16,,Inherited,,,,,,,,,DOPED_004172,,,Doped_Semiconductor,,,AlAs_B,AlAs + B @ 1.0e+16 cm^-3,,,B,
Systematic_Generation,,5e+16,AlAs:B_5.0e+16,,Inherited,,,,,,,,,DOPED_004173,,,Doped_Semiconductor,,,AlAs_B,AlAs + B @ 5.0e+16 cm^-3,,,B,
Systematic_Generation,,1e+17,AlAs:B_1.0e+17,,Inherited,,,,,,,,,DOPED_004174,,,Doped_Semiconductor,,,AlAs_B,AlAs + B @ 1.0e+17 cm^-3,,,B,
Systematic_Generation,,5e+17,AlAs:B_5.0e+17,,Inherited,,,,,,,,,DOPED_004175,,,Doped_Semiconductor,,,AlAs_B,AlAs + B @ 5.0e+17 cm^-3,,,B,
Systematic_Generation,,1e+18,AlAs:B_1.0e+18,,Inherited,,,,,,,,,DOPED_004176,,,Doped_Semiconductor,,,AlAs_B,AlAs + B @ 1.0e+18 cm^-3,,,B,
Systematic_Generation,,5e+18,AlAs:B_5.0e+18,,Inherited,,,,,,,,,DOPED_004177,,,Doped_Semiconductor,,,AlAs_B,AlAs + B @ 5.0e+18 cm^-3,,,B,
Systematic_Generation,,1e+19,AlAs:B_1.0e+19,,Inherited,,,,,,,,,DOPED_004178,,,Doped_Semiconductor,,,AlAs_B,AlAs + B @ 1.0e+19 cm^-3,,,B,
Systematic_Generation,,5e+19,AlAs:B_5.0e+19,,Inherited,,,,,,,,,DOPED_004179,,,Doped_Semiconductor,,,AlAs_B,AlAs + B @ 5.0e+19 cm^-3,,,B,
Systematic_Generation,,1e+20,AlAs:B_1.0e+20,,Inherited,,,,,,,,,DOPED_004180,,,Doped_Semiconductor,,,AlAs_B,AlAs + B @ 1.0e+20 cm^-3,,,B,
Systematic_Generation,,1e+21,AlAs:B_1.0e+21,,Inherited,,,,,,,,,DOPED_004181,,,Doped_Semiconductor,,,AlAs_B,AlAs + B @ 1.0e+21 cm^-3,,,B,
Systematic_Generation,,1000000000000000.0,AlAs:P_1.0e+15,,Inherited,,,,,,,,,DOPED_004182,,,Doped_Semiconductor,,,AlAs_P,AlAs + P @ 1.0e+15 cm^-3,,,P,
Systematic_Generation,,5000000000000000.0,AlAs:P_5.0e+15,,Inherited,,,,,,,,,DOPED_004183,,,Doped_Semiconductor,,,AlAs_P,AlAs + P @ 5.0e+15 cm^-3,,,P,
Systematic_Generation,,1e+16,AlAs:P_1.0e+16,,Inherited,,,,,,,,,DOPED_004184,,,Doped_Semiconductor,,,AlAs_P,AlAs + P @ 1.0e+16 cm^-3,,,P,
Systematic_Generation,,5e+16,AlAs:P_5.0e+16,,Inherited,,,,,,,,,DOPED_004185,,,Doped_Semiconductor,,,AlAs_P,AlAs + P @ 5.0e+16 cm^-3,,,P,
Systematic_Generation,,1e+17,AlAs:P_1.0e+17,,Inherited,,,,,,,,,DOPED_004186,,,Doped_Semiconductor,,,AlAs_P,AlAs + P @ 1.0e+17 cm^-3,,,P,
Systematic_Generation,,5e+17,AlAs:P_5.0e+17,,Inherited,,,,,,,,,DOPED_004187,,,Doped_Semiconductor,,,AlAs_P,AlAs + P @ 5.0e+17 cm^-3,,,P,
Systematic_Generation,,1e+18,AlAs:P_1.0e+18,,Inherited,,,,,,,,,DOPED_004188,,,Doped_Semiconductor,,,AlAs_P,AlAs + P @ 1.0e+18 cm^-3,,,P,
Systematic_Generation,,5e+18,AlAs:P_5.0e+18,,Inherited,,,,,,,,,DOPED_004189,,,Doped_Semiconductor,,,AlAs_P,AlAs + P @ 5.0e+18 cm^-3,,,P,
Systematic_Generation,,1e+19,AlAs:P_1.0e+19,,Inherited,,,,,,,,,DOPED_004190,,,Doped_Semiconductor,,,AlAs_P,AlAs + P @ 1.0e+19 cm^-3,,,P,
Systematic_Generation,,5e+19,AlAs:P_5.0e+19,,Inherited,,,,,,,,,DOPED_004191,,,Doped_Semiconductor,,,AlAs_P,AlAs + P @ 5.0e+19 cm^-3,,,P,
Systematic_Generation,,1e+20,AlAs:P_1.0e+20,,Inherited,,,,,,,,,DOPED_004192,,,Doped_Semiconductor,,,AlAs_P,AlAs + P @ 1.0e+20 cm^-3,,,P,
Systematic_Generation,,1e+21,AlAs:P_1.0e+21,,Inherited,,,,,,,,,DOPED_004193,,,Doped_Semiconductor,,,AlAs_P,AlAs + P @ 1.0e+21 cm^-3,,,P,
Systematic_Generation,,1000000000000000.0,AlAs:As_1.0e+15,,Inherited,,,,,,,,,DOPED_004194,,,Doped_Semiconductor,,,AlAs_As,AlAs + As @ 1.0e+15 cm^-3,,,As,
Systematic_Generation,,5000000000000000.0,AlAs:As_5.0e+15,,Inherited,,,,,,,,,DOPED_004195,,,Doped_Semiconductor,,,AlAs_As,AlAs + As @ 5.0e+15 cm^-3,,,As,
Systematic_Generation,,1e+16,AlAs:As_1.0e+16,,Inherited,,,,,,,,,DOPED_004196,,,Doped_Semiconductor,,,AlAs_As,AlAs + As @ 1.0e+16 cm^-3,,,As,
Systematic_Generation,,5e+16,AlAs:As_5.0e+16,,Inherited,,,,,,,,,DOPED_004197,,,Doped_Semiconductor,,,AlAs_As,AlAs + As @ 5.0e+16 cm^-3,,,As,
Systematic_Generation,,1e+17,AlAs:As_1.0e+17,,Inherited,,,,,,,,,DOPED_004198,,,Doped_Semiconductor,,,AlAs_As,AlAs + As @ 1.0e+17 cm^-3,,,As,
Systematic_Generation,,5e+17,AlAs:As_5.0e+17,,Inherited,,,,,,,,,DOPED_004199,,,Doped_Semiconductor,,,AlAs_As,AlAs + As @ 5.0e+17 cm^-3,,,As,
Systematic_Generation,,1e+18,AlAs:As_1.0e+18,,Inherited,,,,,,,,,DOPED_004200,,,Doped_Semiconductor,,,AlAs_As,AlAs + As @ 1.0e+18 cm^-3,,,As,
Systematic_Generation,,5e+18,AlAs:As_5.0e+18,,Inherited,,,,,,,,,DOPED_004201,,,Doped_Semiconductor,,,AlAs_As,AlAs + As @ 5.0e+18 cm^-3,,,As,
Systematic_Generation,,1e+19,AlAs:As_1.0e+19,,Inherited,,,,,,,,,DOPED_004202,,,Doped_Semiconductor,,,AlAs_As,AlAs + As @ 1.0e+19 cm^-3,,,As,
Systematic_Generation,,5e+19,AlAs:As_5.0e+19,,Inherited,,,,,,,,,DOPED_004203,,,Doped_Semiconductor,,,AlAs_As,AlAs + As @ 5.0e+19 cm^-3,,,As,
Systematic_Generation,,1e+20,AlAs:As_1.0e+20,,Inherited,,,,,,,,,DOPED_004204,,,Doped_Semiconductor,,,AlAs_As,AlAs + As @ 1.0e+20 cm^-3,,,As,
Systematic_Generation,,1e+21,AlAs:As_1.0e+21,,Inherited,,,,,,,,,DOPED_004205,,,Doped_Semiconductor,,,AlAs_As,AlAs + As @ 1.0e+21 cm^-3,,,As,
Systematic_Generation,,1000000000000000.0,AlAs:Sb_1.0e+15,,Inherited,,,,,,,,,DOPED_004206,,,Doped_Semiconductor,,,AlAs_Sb,AlAs + Sb @ 1.0e+15 cm^-3,,,Sb,
Systematic_Generation,,5000000000000000.0,AlAs:Sb_5.0e+15,,Inherited,,,,,,,,,DOPED_004207,,,Doped_Semiconductor,,,AlAs_Sb,AlAs + Sb @ 5.0e+15 cm^-3,,,Sb,
Systematic_Generation,,1e+16,AlAs:Sb_1.0e+16,,Inherited,,,,,,,,,DOPED_004208,,,Doped_Semiconductor,,,AlAs_Sb,AlAs + Sb @ 1.0e+16 cm^-3,,,Sb,
Systematic_Generation,,5e+16,AlAs:Sb_5.0e+16,,Inherited,,,,,,,,,DOPED_004209,,,Doped_Semiconductor,,,AlAs_Sb,AlAs + Sb @ 5.0e+16 cm^-3,,,Sb,
Systematic_Generation,,1e+17,AlAs:Sb_1.0e+17,,Inherited,,,,,,,,,DOPED_004210,,,Doped_Semiconductor,,,AlAs_Sb,AlAs + Sb @ 1.0e+17 cm^-3,,,Sb,
Systematic_Generation,,5e+17,AlAs:Sb_5.0e+17,,Inherited,,,,,,,,,DOPED_004211,,,Doped_Semiconductor,,,AlAs_Sb,AlAs + Sb @ 5.0e+17 cm^-3,,,Sb,
Systematic_Generation,,1e+18,AlAs:Sb_1.0e+18,,Inherited,,,,,,,,,DOPED_004212,,,Doped_Semiconductor,,,AlAs_Sb,AlAs + Sb @ 1.0e+18 cm^-3,,,Sb,
Systematic_Generation,,5e+18,AlAs:Sb_5.0e+18,,Inherited,,,,,,,,,DOPED_004213,,,Doped_Semiconductor,,,AlAs_Sb,AlAs + Sb @ 5.0e+18 cm^-3,,,Sb,
Systematic_Generation,,1e+19,AlAs:Sb_1.0e+19,,Inherited,,,,,,,,,DOPED_004214,,,Doped_Semiconductor,,,AlAs_Sb,AlAs + Sb @ 1.0e+19 cm^-3,,,Sb,
Systematic_Generation,,5e+19,AlAs:Sb_5.0e+19,,Inherited,,,,,,,,,DOPED_004215,,,Doped_Semiconductor,,,AlAs_Sb,AlAs + Sb @ 5.0e+19 cm^-3,,,Sb,
Systematic_Generation,,1e+20,AlAs:Sb_1.0e+20,,Inherited,,,,,,,,,DOPED_004216,,,Doped_Semiconductor,,,AlAs_Sb,AlAs + Sb @ 1.0e+20 cm^-3,,,Sb,
Systematic_Generation,,1e+21,AlAs:Sb_1.0e+21,,Inherited,,,,,,,,,DOPED_004217,,,Doped_Semiconductor,,,AlAs_Sb,AlAs + Sb @ 1.0e+21 cm^-3,,,Sb,
Systematic_Generation,,1000000000000000.0,AlAs:N_1.0e+15,,Inherited,,,,,,,,,DOPED_004218,,,Doped_Semiconductor,,,AlAs_N,AlAs + N @ 1.0e+15 cm^-3,,,N,
Systematic_Generation,,5000000000000000.0,AlAs:N_5.0e+15,,Inherited,,,,,,,,,DOPED_004219,,,Doped_Semiconductor,,,AlAs_N,AlAs + N @ 5.0e+15 cm^-3,,,N,
Systematic_Generation,,1e+16,AlAs:N_1.0e+16,,Inherited,,,,,,,,,DOPED_004220,,,Doped_Semiconductor,,,AlAs_N,AlAs + N @ 1.0e+16 cm^-3,,,N,
Systematic_Generation,,5e+16,AlAs:N_5.0e+16,,Inherited,,,,,,,,,DOPED_004221,,,Doped_Semiconductor,,,AlAs_N,AlAs + N @ 5.0e+16 cm^-3,,,N,
Systematic_Generation,,1e+17,AlAs:N_1.0e+17,,Inherited,,,,,,,,,DOPED_004222,,,Doped_Semiconductor,,,AlAs_N,AlAs + N @ 1.0e+17 cm^-3,,,N,
Systematic_Generation,,5e+17,AlAs:N_5.0e+17,,Inherited,,,,,,,,,DOPED_004223,,,Doped_Semiconductor,,,AlAs_N,AlAs + N @ 5.0e+17 cm^-3,,,N,
Systematic_Generation,,1e+18,AlAs:N_1.0e+18,,Inherited,,,,,,,,,DOPED_004224,,,Doped_Semiconductor,,,AlAs_N,AlAs + N @ 1.0e+18 cm^-3,,,N,
Systematic_Generation,,5e+18,AlAs:N_5.0e+18,,Inherited,,,,,,,,,DOPED_004225,,,Doped_Semiconductor,,,AlAs_N,AlAs + N @ 5.0e+18 cm^-3,,,N,
Systematic_Generation,,1e+19,AlAs:N_1.0e+19,,Inherited,,,,,,,,,DOPED_004226,,,Doped_Semiconductor,,,AlAs_N,AlAs + N @ 1.0e+19 cm^-3,,,N,
Systematic_Generation,,5e+19,AlAs:N_5.0e+19,,Inherited,,,,,,,,,DOPED_004227,,,Doped_Semiconductor,,,AlAs_N,AlAs + N @ 5.0e+19 cm^-3,,,N,
Systematic_Generation,,1e+20,AlAs:N_1.0e+20,,Inherited,,,,,,,,,DOPED_004228,,,Doped_Semiconductor,,,AlAs_N,AlAs + N @ 1.0e+20 cm^-3,,,N,
Systematic_Generation,,1e+21,AlAs:N_1.0e+21,,Inherited,,,,,,,,,DOPED_004229,,,Doped_Semiconductor,,,AlAs_N,AlAs + N @ 1.0e+21 cm^-3,,,N,
Systematic_Generation,,1000000000000000.0,AlAs:Al_1.0e+15,,Inherited,,,,,,,,,DOPED_004230,,,Doped_Semiconductor,,,AlAs_Al,AlAs + Al @ 1.0e+15 cm^-3,,,Al,
Systematic_Generation,,5000000000000000.0,AlAs:Al_5.0e+15,,Inherited,,,,,,,,,DOPED_004231,,,Doped_Semiconductor,,,AlAs_Al,AlAs + Al @ 5.0e+15 cm^-3,,,Al,
Systematic_Generation,,1e+16,AlAs:Al_1.0e+16,,Inherited,,,,,,,,,DOPED_004232,,,Doped_Semiconductor,,,AlAs_Al,AlAs + Al @ 1.0e+16 cm^-3,,,Al,
Systematic_Generation,,5e+16,AlAs:Al_5.0e+16,,Inherited,,,,,,,,,DOPED_004233,,,Doped_Semiconductor,,,AlAs_Al,AlAs + Al @ 5.0e+16 cm^-3,,,Al,
Systematic_Generation,,1e+17,AlAs:Al_1.0e+17,,Inherited,,,,,,,,,DOPED_004234,,,Doped_Semiconductor,,,AlAs_Al,AlAs + Al @ 1.0e+17 cm^-3,,,Al,
Systematic_Generation,,5e+17,AlAs:Al_5.0e+17,,Inherited,,,,,,,,,DOPED_004235,,,Doped_Semiconductor,,,AlAs_Al,AlAs + Al @ 5.0e+17 cm^-3,,,Al,