source,n_elements,doping_concentration,name,termination,space_group,doping_level,volume_fraction,weight_percent,lattice_c,temperature,reinforcement,matrix,layers,material_id,molecular_weight,deposition_method,type,lattice_b,pdi,formula,composition,lattice_a,thickness_nm,dopant,substrate
Systematic_Generation,,,PLA_Si3N4_whisker_20vol,,,,0.2,,,,Si3N4_whisker,PLA,,COMP_007637,,,Composite,,,PLA+Si3N4_whisker,PLA matrix with 20% Si3N4_whisker,,,,
Systematic_Generation,,,PLA_Si3N4_whisker_25vol,,,,0.25,,,,Si3N4_whisker,PLA,,COMP_007638,,,Composite,,,PLA+Si3N4_whisker,PLA matrix with 25% Si3N4_whisker,,,,
Systematic_Generation,,,PLA_Si3N4_whisker_30vol,,,,0.3,,,,Si3N4_whisker,PLA,,COMP_007639,,,Composite,,,PLA+Si3N4_whisker,PLA matrix with 30% Si3N4_whisker,,,,
Systematic_Generation,,,PLA_Si3N4_whisker_40vol,,,,0.4,,,,Si3N4_whisker,PLA,,COMP_007640,,,Composite,,,PLA+Si3N4_whisker,PLA matrix with 40% Si3N4_whisker,,,,
Systematic_Generation,,,PLA_Si3N4_whisker_50vol,,,,0.5,,,,Si3N4_whisker,PLA,,COMP_007641,,,Composite,,,PLA+Si3N4_whisker,PLA matrix with 50% Si3N4_whisker,,,,
Systematic_Generation,,,PLA_Si3N4_whisker_60vol,,,,0.6,,,,Si3N4_whisker,PLA,,COMP_007642,,,Composite,,,PLA+Si3N4_whisker,PLA matrix with 60% Si3N4_whisker,,,,
Systematic_Generation,,,PP_Carbon_fiber_1vol,,,,0.01,,,,Carbon_fiber,PP,,COMP_007643,,,Composite,,,PP+Carbon_fiber,PP matrix with 1% Carbon_fiber,,,,
Systematic_Generation,,,PP_Carbon_fiber_2vol,,,,0.02,,,,Carbon_fiber,PP,,COMP_007644,,,Composite,,,PP+Carbon_fiber,PP matrix with 2% Carbon_fiber,,,,
Systematic_Generation,,,PP_Carbon_fiber_5vol,,,,0.05,,,,Carbon_fiber,PP,,COMP_007645,,,Composite,,,PP+Carbon_fiber,PP matrix with 5% Carbon_fiber,,,,
Systematic_Generation,,,PP_Carbon_fiber_10vol,,,,0.1,,,,Carbon_fiber,PP,,COMP_007646,,,Composite,,,PP+Carbon_fiber,PP matrix with 10% Carbon_fiber,,,,
Systematic_Generation,,,PP_Carbon_fiber_15vol,,,,0.15,,,,Carbon_fiber,PP,,COMP_007647,,,Composite,,,PP+Carbon_fiber,PP matrix with 15% Carbon_fiber,,,,
Systematic_Generation,,,PP_Carbon_fiber_20vol,,,,0.2,,,,Carbon_fiber,PP,,COMP_007648,,,Composite,,,PP+Carbon_fiber,PP matrix with 20% Carbon_fiber,,,,
Systematic_Generation,,,PP_Carbon_fiber_25vol,,,,0.25,,,,Carbon_fiber,PP,,COMP_007649,,,Composite,,,PP+Carbon_fiber,PP matrix with 25% Carbon_fiber,,,,
Systematic_Generation,,,PP_Carbon_fiber_30vol,,,,0.3,,,,Carbon_fiber,PP,,COMP_007650,,,Composite,,,PP+Carbon_fiber,PP matrix with 30% Carbon_fiber,,,,
Systematic_Generation,,,PP_Carbon_fiber_40vol,,,,0.4,,,,Carbon_fiber,PP,,COMP_007651,,,Composite,,,PP+Carbon_fiber,PP matrix with 40% Carbon_fiber,,,,
Systematic_Generation,,,PP_Carbon_fiber_50vol,,,,0.5,,,,Carbon_fiber,PP,,COMP_007652,,,Composite,,,PP+Carbon_fiber,PP matrix with 50% Carbon_fiber,,,,
Systematic_Generation,,,PP_Carbon_fiber_60vol,,,,0.6,,,,Carbon_fiber,PP,,COMP_007653,,,Composite,,,PP+Carbon_fiber,PP matrix with 60% Carbon_fiber,,,,
Systematic_Generation,,,PP_Glass_fiber_1vol,,,,0.01,,,,Glass_fiber,PP,,COMP_007654,,,Composite,,,PP+Glass_fiber,PP matrix with 1% Glass_fiber,,,,
Systematic_Generation,,,PP_Glass_fiber_2vol,,,,0.02,,,,Glass_fiber,PP,,COMP_007655,,,Composite,,,PP+Glass_fiber,PP matrix with 2% Glass_fiber,,,,
Systematic_Generation,,,PP_Glass_fiber_5vol,,,,0.05,,,,Glass_fiber,PP,,COMP_007656,,,Composite,,,PP+Glass_fiber,PP matrix with 5% Glass_fiber,,,,
Systematic_Generation,,,PP_Glass_fiber_10vol,,,,0.1,,,,Glass_fiber,PP,,COMP_007657,,,Composite,,,PP+Glass_fiber,PP matrix with 10% Glass_fiber,,,,
Systematic_Generation,,,PP_Glass_fiber_15vol,,,,0.15,,,,Glass_fiber,PP,,COMP_007658,,,Composite,,,PP+Glass_fiber,PP matrix with 15% Glass_fiber,,,,
Systematic_Generation,,,PP_Glass_fiber_20vol,,,,0.2,,,,Glass_fiber,PP,,COMP_007659,,,Composite,,,PP+Glass_fiber,PP matrix with 20% Glass_fiber,,,,
Systematic_Generation,,,PP_Glass_fiber_25vol,,,,0.25,,,,Glass_fiber,PP,,COMP_007660,,,Composite,,,PP+Glass_fiber,PP matrix with 25% Glass_fiber,,,,
Systematic_Generation,,,PP_Glass_fiber_30vol,,,,0.3,,,,Glass_fiber,PP,,COMP_007661,,,Composite,,,PP+Glass_fiber,PP matrix with 30% Glass_fiber,,,,
Systematic_Generation,,,PP_Glass_fiber_40vol,,,,0.4,,,,Glass_fiber,PP,,COMP_007662,,,Composite,,,PP+Glass_fiber,PP matrix with 40% Glass_fiber,,,,
Systematic_Generation,,,PP_Glass_fiber_50vol,,,,0.5,,,,Glass_fiber,PP,,COMP_007663,,,Composite,,,PP+Glass_fiber,PP matrix with 50% Glass_fiber,,,,
Systematic_Generation,,,PP_Glass_fiber_60vol,,,,0.6,,,,Glass_fiber,PP,,COMP_007664,,,Composite,,,PP+Glass_fiber,PP matrix with 60% Glass_fiber,,,,
Systematic_Generation,,,PP_Aramid_1vol,,,,0.01,,,,Aramid,PP,,COMP_007665,,,Composite,,,PP+Aramid,PP matrix with 1% Aramid,,,,
Systematic_Generation,,,PP_Aramid_2vol,,,,0.02,,,,Aramid,PP,,COMP_007666,,,Composite,,,PP+Aramid,PP matrix with 2% Aramid,,,,
Systematic_Generation,,,PP_Aramid_5vol,,,,0.05,,,,Aramid,PP,,COMP_007667,,,Composite,,,PP+Aramid,PP matrix with 5% Aramid,,,,
Systematic_Generation,,,PP_Aramid_10vol,,,,0.1,,,,Aramid,PP,,COMP_007668,,,Composite,,,PP+Aramid,PP matrix with 10% Aramid,,,,
Systematic_Generation,,,PP_Aramid_15vol,,,,0.15,,,,Aramid,PP,,COMP_007669,,,Composite,,,PP+Aramid,PP matrix with 15% Aramid,,,,
Systematic_Generation,,,PP_Aramid_20vol,,,,0.2,,,,Aramid,PP,,COMP_007670,,,Composite,,,PP+Aramid,PP matrix with 20% Aramid,,,,
Systematic_Generation,,,PP_Aramid_25vol,,,,0.25,,,,Aramid,PP,,COMP_007671,,,Composite,,,PP+Aramid,PP matrix with 25% Aramid,,,,
Systematic_Generation,,,PP_Aramid_30vol,,,,0.3,,,,Aramid,PP,,COMP_007672,,,Composite,,,PP+Aramid,PP matrix with 30% Aramid,,,,
Systematic_Generation,,,PP_Aramid_40vol,,,,0.4,,,,Aramid,PP,,COMP_007673,,,Composite,,,PP+Aramid,PP matrix with 40% Aramid,,,,
Systematic_Generation,,,PP_Aramid_50vol,,,,0.5,,,,Aramid,PP,,COMP_007674,,,Composite,,,PP+Aramid,PP matrix with 50% Aramid,,,,
Systematic_Generation,,,PP_Aramid_60vol,,,,0.6,,,,Aramid,PP,,COMP_007675,,,Composite,,,PP+Aramid,PP matrix with 60% Aramid,,,,
Systematic_Generation,,,PP_Basalt_1vol,,,,0.01,,,,Basalt,PP,,COMP_007676,,,Composite,,,PP+Basalt,PP matrix with 1% Basalt,,,,
Systematic_Generation,,,PP_Basalt_2vol,,,,0.02,,,,Basalt,PP,,COMP_007677,,,Composite,,,PP+Basalt,PP matrix with 2% Basalt,,,,
Systematic_Generation,,,PP_Basalt_5vol,,,,0.05,,,,Basalt,PP,,COMP_007678,,,Composite,,,PP+Basalt,PP matrix with 5% Basalt,,,,
Systematic_Generation,,,PP_Basalt_10vol,,,,0.1,,,,Basalt,PP,,COMP_007679,,,Composite,,,PP+Basalt,PP matrix with 10% Basalt,,,,
Systematic_Generation,,,PP_Basalt_15vol,,,,0.15,,,,Basalt,PP,,COMP_007680,,,Composite,,,PP+Basalt,PP matrix with 15% Basalt,,,,
Systematic_Generation,,,PP_Basalt_20vol,,,,0.2,,,,Basalt,PP,,COMP_007681,,,Composite,,,PP+Basalt,PP matrix with 20% Basalt,,,,
Systematic_Generation,,,PP_Basalt_25vol,,,,0.25,,,,Basalt,PP,,COMP_007682,,,Composite,,,PP+Basalt,PP matrix with 25% Basalt,,,,
Systematic_Generation,,,PP_Basalt_30vol,,,,0.3,,,,Basalt,PP,,COMP_007683,,,Composite,,,PP+Basalt,PP matrix with 30% Basalt,,,,
Systematic_Generation,,,PP_Basalt_40vol,,,,0.4,,,,Basalt,PP,,COMP_007684,,,Composite,,,PP+Basalt,PP matrix with 40% Basalt,,,,
Systematic_Generation,,,PP_Basalt_50vol,,,,0.5,,,,Basalt,PP,,COMP_007685,,,Composite,,,PP+Basalt,PP matrix with 50% Basalt,,,,
Systematic_Generation,,,PP_Basalt_60vol,,,,0.6,,,,Basalt,PP,,COMP_007686,,,Composite,,,PP+Basalt,PP matrix with 60% Basalt,,,,
Systematic_Generation,,,PP_Natural_fiber_1vol,,,,0.01,,,,Natural_fiber,PP,,COMP_007687,,,Composite,,,PP+Natural_fiber,PP matrix with 1% Natural_fiber,,,,
Systematic_Generation,,,PP_Natural_fiber_2vol,,,,0.02,,,,Natural_fiber,PP,,COMP_007688,,,Composite,,,PP+Natural_fiber,PP matrix with 2% Natural_fiber,,,,
Systematic_Generation,,,PP_Natural_fiber_5vol,,,,0.05,,,,Natural_fiber,PP,,COMP_007689,,,Composite,,,PP+Natural_fiber,PP matrix with 5% Natural_fiber,,,,
Systematic_Generation,,,PP_Natural_fiber_10vol,,,,0.1,,,,Natural_fiber,PP,,COMP_007690,,,Composite,,,PP+Natural_fiber,PP matrix with 10% Natural_fiber,,,,
Systematic_Generation,,,PP_Natural_fiber_15vol,,,,0.15,,,,Natural_fiber,PP,,COMP_007691,,,Composite,,,PP+Natural_fiber,PP matrix with 15% Natural_fiber,,,,
Systematic_Generation,,,PP_Natural_fiber_20vol,,,,0.2,,,,Natural_fiber,PP,,COMP_007692,,,Composite,,,PP+Natural_fiber,PP matrix with 20% Natural_fiber,,,,
Systematic_Generation,,,PP_Natural_fiber_25vol,,,,0.25,,,,Natural_fiber,PP,,COMP_007693,,,Composite,,,PP+Natural_fiber,PP matrix with 25% Natural_fiber,,,,
Systematic_Generation,,,PP_Natural_fiber_30vol,,,,0.3,,,,Natural_fiber,PP,,COMP_007694,,,Composite,,,PP+Natural_fiber,PP matrix with 30% Natural_fiber,,,,
Systematic_Generation,,,PP_Natural_fiber_40vol,,,,0.4,,,,Natural_fiber,PP,,COMP_007695,,,Composite,,,PP+Natural_fiber,PP matrix with 40% Natural_fiber,,,,
Systematic_Generation,,,PP_Natural_fiber_50vol,,,,0.5,,,,Natural_fiber,PP,,COMP_007696,,,Composite,,,PP+Natural_fiber,PP matrix with 50% Natural_fiber,,,,
Systematic_Generation,,,PP_Natural_fiber_60vol,,,,0.6,,,,Natural_fiber,PP,,COMP_007697,,,Composite,,,PP+Natural_fiber,PP matrix with 60% Natural_fiber,,,,
Systematic_Generation,,,PP_Graphene_1vol,,,,0.01,,,,Graphene,PP,,COMP_007698,,,Composite,,,PP+Graphene,PP matrix with 1% Graphene,,,,
Systematic_Generation,,,PP_Graphene_2vol,,,,0.02,,,,Graphene,PP,,COMP_007699,,,Composite,,,PP+Graphene,PP matrix with 2% Graphene,,,,
Systematic_Generation,,,PP_Graphene_5vol,,,,0.05,,,,Graphene,PP,,COMP_007700,,,Composite,,,PP+Graphene,PP matrix with 5% Graphene,,,,
Systematic_Generation,,,PP_Graphene_10vol,,,,0.1,,,,Graphene,PP,,COMP_007701,,,Composite,,,PP+Graphene,PP matrix with 10% Graphene,,,,
Systematic_Generation,,,PP_Graphene_15vol,,,,0.15,,,,Graphene,PP,,COMP_007702,,,Composite,,,PP+Graphene,PP matrix with 15% Graphene,,,,
Systematic_Generation,,,PP_Graphene_20vol,,,,0.2,,,,Graphene,PP,,COMP_007703,,,Composite,,,PP+Graphene,PP matrix with 20% Graphene,,,,
Systematic_Generation,,,PP_Graphene_25vol,,,,0.25,,,,Graphene,PP,,COMP_007704,,,Composite,,,PP+Graphene,PP matrix with 25% Graphene,,,,