source,n_elements,doping_concentration,name,termination,space_group,doping_level,volume_fraction,weight_percent,lattice_c,temperature,reinforcement,matrix,layers,material_id,molecular_weight,deposition_method,type,lattice_b,pdi,formula,composition,lattice_a,thickness_nm,dopant,substrate
Systematic_Generation,,1e+18,AlAs:Al_1.0e+18,,Inherited,,,,,,,,,DOPED_004236,,,Doped_Semiconductor,,,AlAs_Al,AlAs + Al @ 1.0e+18 cm^-3,,,Al,
Systematic_Generation,,5e+18,AlAs:Al_5.0e+18,,Inherited,,,,,,,,,DOPED_004237,,,Doped_Semiconductor,,,AlAs_Al,AlAs + Al @ 5.0e+18 cm^-3,,,Al,
Systematic_Generation,,1e+19,AlAs:Al_1.0e+19,,Inherited,,,,,,,,,DOPED_004238,,,Doped_Semiconductor,,,AlAs_Al,AlAs + Al @ 1.0e+19 cm^-3,,,Al,
Systematic_Generation,,5e+19,AlAs:Al_5.0e+19,,Inherited,,,,,,,,,DOPED_004239,,,Doped_Semiconductor,,,AlAs_Al,AlAs + Al @ 5.0e+19 cm^-3,,,Al,
Systematic_Generation,,1e+20,AlAs:Al_1.0e+20,,Inherited,,,,,,,,,DOPED_004240,,,Doped_Semiconductor,,,AlAs_Al,AlAs + Al @ 1.0e+20 cm^-3,,,Al,
Systematic_Generation,,1e+21,AlAs:Al_1.0e+21,,Inherited,,,,,,,,,DOPED_004241,,,Doped_Semiconductor,,,AlAs_Al,AlAs + Al @ 1.0e+21 cm^-3,,,Al,
Systematic_Generation,,1000000000000000.0,AlAs:Ga_1.0e+15,,Inherited,,,,,,,,,DOPED_004242,,,Doped_Semiconductor,,,AlAs_Ga,AlAs + Ga @ 1.0e+15 cm^-3,,,Ga,
Systematic_Generation,,5000000000000000.0,AlAs:Ga_5.0e+15,,Inherited,,,,,,,,,DOPED_004243,,,Doped_Semiconductor,,,AlAs_Ga,AlAs + Ga @ 5.0e+15 cm^-3,,,Ga,
Systematic_Generation,,1e+16,AlAs:Ga_1.0e+16,,Inherited,,,,,,,,,DOPED_004244,,,Doped_Semiconductor,,,AlAs_Ga,AlAs + Ga @ 1.0e+16 cm^-3,,,Ga,
Systematic_Generation,,5e+16,AlAs:Ga_5.0e+16,,Inherited,,,,,,,,,DOPED_004245,,,Doped_Semiconductor,,,AlAs_Ga,AlAs + Ga @ 5.0e+16 cm^-3,,,Ga,
Systematic_Generation,,1e+17,AlAs:Ga_1.0e+17,,Inherited,,,,,,,,,DOPED_004246,,,Doped_Semiconductor,,,AlAs_Ga,AlAs + Ga @ 1.0e+17 cm^-3,,,Ga,
Systematic_Generation,,5e+17,AlAs:Ga_5.0e+17,,Inherited,,,,,,,,,DOPED_004247,,,Doped_Semiconductor,,,AlAs_Ga,AlAs + Ga @ 5.0e+17 cm^-3,,,Ga,
Systematic_Generation,,1e+18,AlAs:Ga_1.0e+18,,Inherited,,,,,,,,,DOPED_004248,,,Doped_Semiconductor,,,AlAs_Ga,AlAs + Ga @ 1.0e+18 cm^-3,,,Ga,
Systematic_Generation,,5e+18,AlAs:Ga_5.0e+18,,Inherited,,,,,,,,,DOPED_004249,,,Doped_Semiconductor,,,AlAs_Ga,AlAs + Ga @ 5.0e+18 cm^-3,,,Ga,
Systematic_Generation,,1e+19,AlAs:Ga_1.0e+19,,Inherited,,,,,,,,,DOPED_004250,,,Doped_Semiconductor,,,AlAs_Ga,AlAs + Ga @ 1.0e+19 cm^-3,,,Ga,
Systematic_Generation,,5e+19,AlAs:Ga_5.0e+19,,Inherited,,,,,,,,,DOPED_004251,,,Doped_Semiconductor,,,AlAs_Ga,AlAs + Ga @ 5.0e+19 cm^-3,,,Ga,
Systematic_Generation,,1e+20,AlAs:Ga_1.0e+20,,Inherited,,,,,,,,,DOPED_004252,,,Doped_Semiconductor,,,AlAs_Ga,AlAs + Ga @ 1.0e+20 cm^-3,,,Ga,
Systematic_Generation,,1e+21,AlAs:Ga_1.0e+21,,Inherited,,,,,,,,,DOPED_004253,,,Doped_Semiconductor,,,AlAs_Ga,AlAs + Ga @ 1.0e+21 cm^-3,,,Ga,
Systematic_Generation,,1000000000000000.0,AlAs:In_1.0e+15,,Inherited,,,,,,,,,DOPED_004254,,,Doped_Semiconductor,,,AlAs_In,AlAs + In @ 1.0e+15 cm^-3,,,In,
Systematic_Generation,,5000000000000000.0,AlAs:In_5.0e+15,,Inherited,,,,,,,,,DOPED_004255,,,Doped_Semiconductor,,,AlAs_In,AlAs + In @ 5.0e+15 cm^-3,,,In,
Systematic_Generation,,1e+16,AlAs:In_1.0e+16,,Inherited,,,,,,,,,DOPED_004256,,,Doped_Semiconductor,,,AlAs_In,AlAs + In @ 1.0e+16 cm^-3,,,In,
Systematic_Generation,,5e+16,AlAs:In_5.0e+16,,Inherited,,,,,,,,,DOPED_004257,,,Doped_Semiconductor,,,AlAs_In,AlAs + In @ 5.0e+16 cm^-3,,,In,
Systematic_Generation,,1e+17,AlAs:In_1.0e+17,,Inherited,,,,,,,,,DOPED_004258,,,Doped_Semiconductor,,,AlAs_In,AlAs + In @ 1.0e+17 cm^-3,,,In,
Systematic_Generation,,5e+17,AlAs:In_5.0e+17,,Inherited,,,,,,,,,DOPED_004259,,,Doped_Semiconductor,,,AlAs_In,AlAs + In @ 5.0e+17 cm^-3,,,In,
Systematic_Generation,,1e+18,AlAs:In_1.0e+18,,Inherited,,,,,,,,,DOPED_004260,,,Doped_Semiconductor,,,AlAs_In,AlAs + In @ 1.0e+18 cm^-3,,,In,
Systematic_Generation,,5e+18,AlAs:In_5.0e+18,,Inherited,,,,,,,,,DOPED_004261,,,Doped_Semiconductor,,,AlAs_In,AlAs + In @ 5.0e+18 cm^-3,,,In,
Systematic_Generation,,1e+19,AlAs:In_1.0e+19,,Inherited,,,,,,,,,DOPED_004262,,,Doped_Semiconductor,,,AlAs_In,AlAs + In @ 1.0e+19 cm^-3,,,In,
Systematic_Generation,,5e+19,AlAs:In_5.0e+19,,Inherited,,,,,,,,,DOPED_004263,,,Doped_Semiconductor,,,AlAs_In,AlAs + In @ 5.0e+19 cm^-3,,,In,
Systematic_Generation,,1e+20,AlAs:In_1.0e+20,,Inherited,,,,,,,,,DOPED_004264,,,Doped_Semiconductor,,,AlAs_In,AlAs + In @ 1.0e+20 cm^-3,,,In,
Systematic_Generation,,1e+21,AlAs:In_1.0e+21,,Inherited,,,,,,,,,DOPED_004265,,,Doped_Semiconductor,,,AlAs_In,AlAs + In @ 1.0e+21 cm^-3,,,In,
Systematic_Generation,,1000000000000000.0,AlAs:Bi_1.0e+15,,Inherited,,,,,,,,,DOPED_004266,,,Doped_Semiconductor,,,AlAs_Bi,AlAs + Bi @ 1.0e+15 cm^-3,,,Bi,
Systematic_Generation,,5000000000000000.0,AlAs:Bi_5.0e+15,,Inherited,,,,,,,,,DOPED_004267,,,Doped_Semiconductor,,,AlAs_Bi,AlAs + Bi @ 5.0e+15 cm^-3,,,Bi,
Systematic_Generation,,1e+16,AlAs:Bi_1.0e+16,,Inherited,,,,,,,,,DOPED_004268,,,Doped_Semiconductor,,,AlAs_Bi,AlAs + Bi @ 1.0e+16 cm^-3,,,Bi,
Systematic_Generation,,5e+16,AlAs:Bi_5.0e+16,,Inherited,,,,,,,,,DOPED_004269,,,Doped_Semiconductor,,,AlAs_Bi,AlAs + Bi @ 5.0e+16 cm^-3,,,Bi,
Systematic_Generation,,1e+17,AlAs:Bi_1.0e+17,,Inherited,,,,,,,,,DOPED_004270,,,Doped_Semiconductor,,,AlAs_Bi,AlAs + Bi @ 1.0e+17 cm^-3,,,Bi,
Systematic_Generation,,5e+17,AlAs:Bi_5.0e+17,,Inherited,,,,,,,,,DOPED_004271,,,Doped_Semiconductor,,,AlAs_Bi,AlAs + Bi @ 5.0e+17 cm^-3,,,Bi,
Systematic_Generation,,1e+18,AlAs:Bi_1.0e+18,,Inherited,,,,,,,,,DOPED_004272,,,Doped_Semiconductor,,,AlAs_Bi,AlAs + Bi @ 1.0e+18 cm^-3,,,Bi,
Systematic_Generation,,5e+18,AlAs:Bi_5.0e+18,,Inherited,,,,,,,,,DOPED_004273,,,Doped_Semiconductor,,,AlAs_Bi,AlAs + Bi @ 5.0e+18 cm^-3,,,Bi,
Systematic_Generation,,1e+19,AlAs:Bi_1.0e+19,,Inherited,,,,,,,,,DOPED_004274,,,Doped_Semiconductor,,,AlAs_Bi,AlAs + Bi @ 1.0e+19 cm^-3,,,Bi,
Systematic_Generation,,5e+19,AlAs:Bi_5.0e+19,,Inherited,,,,,,,,,DOPED_004275,,,Doped_Semiconductor,,,AlAs_Bi,AlAs + Bi @ 5.0e+19 cm^-3,,,Bi,
Systematic_Generation,,1e+20,AlAs:Bi_1.0e+20,,Inherited,,,,,,,,,DOPED_004276,,,Doped_Semiconductor,,,AlAs_Bi,AlAs + Bi @ 1.0e+20 cm^-3,,,Bi,
Systematic_Generation,,1e+21,AlAs:Bi_1.0e+21,,Inherited,,,,,,,,,DOPED_004277,,,Doped_Semiconductor,,,AlAs_Bi,AlAs + Bi @ 1.0e+21 cm^-3,,,Bi,
Systematic_Generation,,1000000000000000.0,AlAs:Li_1.0e+15,,Inherited,,,,,,,,,DOPED_004278,,,Doped_Semiconductor,,,AlAs_Li,AlAs + Li @ 1.0e+15 cm^-3,,,Li,
Systematic_Generation,,5000000000000000.0,AlAs:Li_5.0e+15,,Inherited,,,,,,,,,DOPED_004279,,,Doped_Semiconductor,,,AlAs_Li,AlAs + Li @ 5.0e+15 cm^-3,,,Li,
Systematic_Generation,,1e+16,AlAs:Li_1.0e+16,,Inherited,,,,,,,,,DOPED_004280,,,Doped_Semiconductor,,,AlAs_Li,AlAs + Li @ 1.0e+16 cm^-3,,,Li,
Systematic_Generation,,5e+16,AlAs:Li_5.0e+16,,Inherited,,,,,,,,,DOPED_004281,,,Doped_Semiconductor,,,AlAs_Li,AlAs + Li @ 5.0e+16 cm^-3,,,Li,
Systematic_Generation,,1e+17,AlAs:Li_1.0e+17,,Inherited,,,,,,,,,DOPED_004282,,,Doped_Semiconductor,,,AlAs_Li,AlAs + Li @ 1.0e+17 cm^-3,,,Li,
Systematic_Generation,,5e+17,AlAs:Li_5.0e+17,,Inherited,,,,,,,,,DOPED_004283,,,Doped_Semiconductor,,,AlAs_Li,AlAs + Li @ 5.0e+17 cm^-3,,,Li,
Systematic_Generation,,1e+18,AlAs:Li_1.0e+18,,Inherited,,,,,,,,,DOPED_004284,,,Doped_Semiconductor,,,AlAs_Li,AlAs + Li @ 1.0e+18 cm^-3,,,Li,
Systematic_Generation,,5e+18,AlAs:Li_5.0e+18,,Inherited,,,,,,,,,DOPED_004285,,,Doped_Semiconductor,,,AlAs_Li,AlAs + Li @ 5.0e+18 cm^-3,,,Li,
Systematic_Generation,,1e+19,AlAs:Li_1.0e+19,,Inherited,,,,,,,,,DOPED_004286,,,Doped_Semiconductor,,,AlAs_Li,AlAs + Li @ 1.0e+19 cm^-3,,,Li,
Systematic_Generation,,5e+19,AlAs:Li_5.0e+19,,Inherited,,,,,,,,,DOPED_004287,,,Doped_Semiconductor,,,AlAs_Li,AlAs + Li @ 5.0e+19 cm^-3,,,Li,
Systematic_Generation,,1e+20,AlAs:Li_1.0e+20,,Inherited,,,,,,,,,DOPED_004288,,,Doped_Semiconductor,,,AlAs_Li,AlAs + Li @ 1.0e+20 cm^-3,,,Li,
Systematic_Generation,,1e+21,AlAs:Li_1.0e+21,,Inherited,,,,,,,,,DOPED_004289,,,Doped_Semiconductor,,,AlAs_Li,AlAs + Li @ 1.0e+21 cm^-3,,,Li,
Systematic_Generation,,1000000000000000.0,AlAs:S_1.0e+15,,Inherited,,,,,,,,,DOPED_004290,,,Doped_Semiconductor,,,AlAs_S,AlAs + S @ 1.0e+15 cm^-3,,,S,
Systematic_Generation,,5000000000000000.0,AlAs:S_5.0e+15,,Inherited,,,,,,,,,DOPED_004291,,,Doped_Semiconductor,,,AlAs_S,AlAs + S @ 5.0e+15 cm^-3,,,S,
Systematic_Generation,,1e+16,AlAs:S_1.0e+16,,Inherited,,,,,,,,,DOPED_004292,,,Doped_Semiconductor,,,AlAs_S,AlAs + S @ 1.0e+16 cm^-3,,,S,
Systematic_Generation,,5e+16,AlAs:S_5.0e+16,,Inherited,,,,,,,,,DOPED_004293,,,Doped_Semiconductor,,,AlAs_S,AlAs + S @ 5.0e+16 cm^-3,,,S,
Systematic_Generation,,1e+17,AlAs:S_1.0e+17,,Inherited,,,,,,,,,DOPED_004294,,,Doped_Semiconductor,,,AlAs_S,AlAs + S @ 1.0e+17 cm^-3,,,S,
Systematic_Generation,,5e+17,AlAs:S_5.0e+17,,Inherited,,,,,,,,,DOPED_004295,,,Doped_Semiconductor,,,AlAs_S,AlAs + S @ 5.0e+17 cm^-3,,,S,
Systematic_Generation,,1e+18,AlAs:S_1.0e+18,,Inherited,,,,,,,,,DOPED_004296,,,Doped_Semiconductor,,,AlAs_S,AlAs + S @ 1.0e+18 cm^-3,,,S,
Systematic_Generation,,5e+18,AlAs:S_5.0e+18,,Inherited,,,,,,,,,DOPED_004297,,,Doped_Semiconductor,,,AlAs_S,AlAs + S @ 5.0e+18 cm^-3,,,S,
Systematic_Generation,,1e+19,AlAs:S_1.0e+19,,Inherited,,,,,,,,,DOPED_004298,,,Doped_Semiconductor,,,AlAs_S,AlAs + S @ 1.0e+19 cm^-3,,,S,
Systematic_Generation,,5e+19,AlAs:S_5.0e+19,,Inherited,,,,,,,,,DOPED_004299,,,Doped_Semiconductor,,,AlAs_S,AlAs + S @ 5.0e+19 cm^-3,,,S,
Systematic_Generation,,1e+20,AlAs:S_1.0e+20,,Inherited,,,,,,,,,DOPED_004300,,,Doped_Semiconductor,,,AlAs_S,AlAs + S @ 1.0e+20 cm^-3,,,S,
Systematic_Generation,,1e+21,AlAs:S_1.0e+21,,Inherited,,,,,,,,,DOPED_004301,,,Doped_Semiconductor,,,AlAs_S,AlAs + S @ 1.0e+21 cm^-3,,,S,
Systematic_Generation,,1000000000000000.0,AlAs:Se_1.0e+15,,Inherited,,,,,,,,,DOPED_004302,,,Doped_Semiconductor,,,AlAs_Se,AlAs + Se @ 1.0e+15 cm^-3,,,Se,
Systematic_Generation,,5000000000000000.0,AlAs:Se_5.0e+15,,Inherited,,,,,,,,,DOPED_004303,,,Doped_Semiconductor,,,AlAs_Se,AlAs + Se @ 5.0e+15 cm^-3,,,Se,
Systematic_Generation,,1e+16,AlAs:Se_1.0e+16,,Inherited,,,,,,,,,DOPED_004304,,,Doped_Semiconductor,,,AlAs_Se,AlAs + Se @ 1.0e+16 cm^-3,,,Se,
Systematic_Generation,,5e+16,AlAs:Se_5.0e+16,,Inherited,,,,,,,,,DOPED_004305,,,Doped_Semiconductor,,,AlAs_Se,AlAs + Se @ 5.0e+16 cm^-3,,,Se,
Systematic_Generation,,1e+17,AlAs:Se_1.0e+17,,Inherited,,,,,,,,,DOPED_004306,,,Doped_Semiconductor,,,AlAs_Se,AlAs + Se @ 1.0e+17 cm^-3,,,Se,
Systematic_Generation,,5e+17,AlAs:Se_5.0e+17,,Inherited,,,,,,,,,DOPED_004307,,,Doped_Semiconductor,,,AlAs_Se,AlAs + Se @ 5.0e+17 cm^-3,,,Se,
Systematic_Generation,,1e+18,AlAs:Se_1.0e+18,,Inherited,,,,,,,,,DOPED_004308,,,Doped_Semiconductor,,,AlAs_Se,AlAs + Se @ 1.0e+18 cm^-3,,,Se,
Systematic_Generation,,5e+18,AlAs:Se_5.0e+18,,Inherited,,,,,,,,,DOPED_004309,,,Doped_Semiconductor,,,AlAs_Se,AlAs + Se @ 5.0e+18 cm^-3,,,Se,
Systematic_Generation,,1e+19,AlAs:Se_1.0e+19,,Inherited,,,,,,,,,DOPED_004310,,,Doped_Semiconductor,,,AlAs_Se,AlAs + Se @ 1.0e+19 cm^-3,,,Se,
Systematic_Generation,,5e+19,AlAs:Se_5.0e+19,,Inherited,,,,,,,,,DOPED_004311,,,Doped_Semiconductor,,,AlAs_Se,AlAs + Se @ 5.0e+19 cm^-3,,,Se,
Systematic_Generation,,1e+20,AlAs:Se_1.0e+20,,Inherited,,,,,,,,,DOPED_004312,,,Doped_Semiconductor,,,AlAs_Se,AlAs + Se @ 1.0e+20 cm^-3,,,Se,
Systematic_Generation,,1e+21,AlAs:Se_1.0e+21,,Inherited,,,,,,,,,DOPED_004313,,,Doped_Semiconductor,,,AlAs_Se,AlAs + Se @ 1.0e+21 cm^-3,,,Se,
Systematic_Generation,,1000000000000000.0,AlAs:Te_1.0e+15,,Inherited,,,,,,,,,DOPED_004314,,,Doped_Semiconductor,,,AlAs_Te,AlAs + Te @ 1.0e+15 cm^-3,,,Te,
Systematic_Generation,,5000000000000000.0,AlAs:Te_5.0e+15,,Inherited,,,,,,,,,DOPED_004315,,,Doped_Semiconductor,,,AlAs_Te,AlAs + Te @ 5.0e+15 cm^-3,,,Te,
Systematic_Generation,,1e+16,AlAs:Te_1.0e+16,,Inherited,,,,,,,,,DOPED_004316,,,Doped_Semiconductor,,,AlAs_Te,AlAs + Te @ 1.0e+16 cm^-3,,,Te,
Systematic_Generation,,5e+16,AlAs:Te_5.0e+16,,Inherited,,,,,,,,,DOPED_004317,,,Doped_Semiconductor,,,AlAs_Te,AlAs + Te @ 5.0e+16 cm^-3,,,Te,
Systematic_Generation,,1e+17,AlAs:Te_1.0e+17,,Inherited,,,,,,,,,DOPED_004318,,,Doped_Semiconductor,,,AlAs_Te,AlAs + Te @ 1.0e+17 cm^-3,,,Te,
Systematic_Generation,,5e+17,AlAs:Te_5.0e+17,,Inherited,,,,,,,,,DOPED_004319,,,Doped_Semiconductor,,,AlAs_Te,AlAs + Te @ 5.0e+17 cm^-3,,,Te,
Systematic_Generation,,1e+18,AlAs:Te_1.0e+18,,Inherited,,,,,,,,,DOPED_004320,,,Doped_Semiconductor,,,AlAs_Te,AlAs + Te @ 1.0e+18 cm^-3,,,Te,
Systematic_Generation,,5e+18,AlAs:Te_5.0e+18,,Inherited,,,,,,,,,DOPED_004321,,,Doped_Semiconductor,,,AlAs_Te,AlAs + Te @ 5.0e+18 cm^-3,,,Te,
Systematic_Generation,,1e+19,AlAs:Te_1.0e+19,,Inherited,,,,,,,,,DOPED_004322,,,Doped_Semiconductor,,,AlAs_Te,AlAs + Te @ 1.0e+19 cm^-3,,,Te,
Systematic_Generation,,5e+19,AlAs:Te_5.0e+19,,Inherited,,,,,,,,,DOPED_004323,,,Doped_Semiconductor,,,AlAs_Te,AlAs + Te @ 5.0e+19 cm^-3,,,Te,
Systematic_Generation,,1e+20,AlAs:Te_1.0e+20,,Inherited,,,,,,,,,DOPED_004324,,,Doped_Semiconductor,,,AlAs_Te,AlAs + Te @ 1.0e+20 cm^-3,,,Te,
Systematic_Generation,,1e+21,AlAs:Te_1.0e+21,,Inherited,,,,,,,,,DOPED_004325,,,Doped_Semiconductor,,,AlAs_Te,AlAs + Te @ 1.0e+21 cm^-3,,,Te,
Systematic_Generation,,1000000000000000.0,AlSb:B_1.0e+15,,Inherited,,,,,,,,,DOPED_004326,,,Doped_Semiconductor,,,AlSb_B,AlSb + B @ 1.0e+15 cm^-3,,,B,
Systematic_Generation,,5000000000000000.0,AlSb:B_5.0e+15,,Inherited,,,,,,,,,DOPED_004327,,,Doped_Semiconductor,,,AlSb_B,AlSb + B @ 5.0e+15 cm^-3,,,B,
Systematic_Generation,,1e+16,AlSb:B_1.0e+16,,Inherited,,,,,,,,,DOPED_004328,,,Doped_Semiconductor,,,AlSb_B,AlSb + B @ 1.0e+16 cm^-3,,,B,
Systematic_Generation,,5e+16,AlSb:B_5.0e+16,,Inherited,,,,,,,,,DOPED_004329,,,Doped_Semiconductor,,,AlSb_B,AlSb + B @ 5.0e+16 cm^-3,,,B,
Systematic_Generation,,1e+17,AlSb:B_1.0e+17,,Inherited,,,,,,,,,DOPED_004330,,,Doped_Semiconductor,,,AlSb_B,AlSb + B @ 1.0e+17 cm^-3,,,B,
Systematic_Generation,,5e+17,AlSb:B_5.0e+17,,Inherited,,,,,,,,,DOPED_004331,,,Doped_Semiconductor,,,AlSb_B,AlSb + B @ 5.0e+17 cm^-3,,,B,
Systematic_Generation,,1e+18,AlSb:B_1.0e+18,,Inherited,,,,,,,,,DOPED_004332,,,Doped_Semiconductor,,,AlSb_B,AlSb + B @ 1.0e+18 cm^-3,,,B,
Systematic_Generation,,5e+18,AlSb:B_5.0e+18,,Inherited,,,,,,,,,DOPED_004333,,,Doped_Semiconductor,,,AlSb_B,AlSb + B @ 5.0e+18 cm^-3,,,B,
Systematic_Generation,,1e+19,AlSb:B_1.0e+19,,Inherited,,,,,,,,,DOPED_004334,,,Doped_Semiconductor,,,AlSb_B,AlSb + B @ 1.0e+19 cm^-3,,,B,
Systematic_Generation,,5e+19,AlSb:B_5.0e+19,,Inherited,,,,,,,,,DOPED_004335,,,Doped_Semiconductor,,,AlSb_B,AlSb + B @ 5.0e+19 cm^-3,,,B,
Systematic_Generation,,1e+20,AlSb:B_1.0e+20,,Inherited,,,,,,,,,DOPED_004336,,,Doped_Semiconductor,,,AlSb_B,AlSb + B @ 1.0e+20 cm^-3,,,B,
Systematic_Generation,,1e+21,AlSb:B_1.0e+21,,Inherited,,,,,,,,,DOPED_004337,,,Doped_Semiconductor,,,AlSb_B,AlSb + B @ 1.0e+21 cm^-3,,,B,
Systematic_Generation,,1000000000000000.0,AlSb:P_1.0e+15,,Inherited,,,,,,,,,DOPED_004338,,,Doped_Semiconductor,,,AlSb_P,AlSb + P @ 1.0e+15 cm^-3,,,P,
Systematic_Generation,,5000000000000000.0,AlSb:P_5.0e+15,,Inherited,,,,,,,,,DOPED_004339,,,Doped_Semiconductor,,,AlSb_P,AlSb + P @ 5.0e+15 cm^-3,,,P,
Systematic_Generation,,1e+16,AlSb:P_1.0e+16,,Inherited,,,,,,,,,DOPED_004340,,,Doped_Semiconductor,,,AlSb_P,AlSb + P @ 1.0e+16 cm^-3,,,P,
Systematic_Generation,,5e+16,AlSb:P_5.0e+16,,Inherited,,,,,,,,,DOPED_004341,,,Doped_Semiconductor,,,AlSb_P,AlSb + P @ 5.0e+16 cm^-3,,,P,
Systematic_Generation,,1e+17,AlSb:P_1.0e+17,,Inherited,,,,,,,,,DOPED_004342,,,Doped_Semiconductor,,,AlSb_P,AlSb + P @ 1.0e+17 cm^-3,,,P,
Systematic_Generation,,5e+17,AlSb:P_5.0e+17,,Inherited,,,,,,,,,DOPED_004343,,,Doped_Semiconductor,,,AlSb_P,AlSb + P @ 5.0e+17 cm^-3,,,P,
Systematic_Generation,,1e+18,AlSb:P_1.0e+18,,Inherited,,,,,,,,,DOPED_004344,,,Doped_Semiconductor,,,AlSb_P,AlSb + P @ 1.0e+18 cm^-3,,,P,
Systematic_Generation,,5e+18,AlSb:P_5.0e+18,,Inherited,,,,,,,,,DOPED_004345,,,Doped_Semiconductor,,,AlSb_P,AlSb + P @ 5.0e+18 cm^-3,,,P,
Systematic_Generation,,1e+19,AlSb:P_1.0e+19,,Inherited,,,,,,,,,DOPED_004346,,,Doped_Semiconductor,,,AlSb_P,AlSb + P @ 1.0e+19 cm^-3,,,P,
Systematic_Generation,,5e+19,AlSb:P_5.0e+19,,Inherited,,,,,,,,,DOPED_004347,,,Doped_Semiconductor,,,AlSb_P,AlSb + P @ 5.0e+19 cm^-3,,,P,
Systematic_Generation,,1e+20,AlSb:P_1.0e+20,,Inherited,,,,,,,,,DOPED_004348,,,Doped_Semiconductor,,,AlSb_P,AlSb + P @ 1.0e+20 cm^-3,,,P,
Systematic_Generation,,1e+21,AlSb:P_1.0e+21,,Inherited,,,,,,,,,DOPED_004349,,,Doped_Semiconductor,,,AlSb_P,AlSb + P @ 1.0e+21 cm^-3,,,P,
Systematic_Generation,,1000000000000000.0,AlSb:As_1.0e+15,,Inherited,,,,,,,,,DOPED_004350,,,Doped_Semiconductor,,,AlSb_As,AlSb + As @ 1.0e+15 cm^-3,,,As,
Systematic_Generation,,5000000000000000.0,AlSb:As_5.0e+15,,Inherited,,,,,,,,,DOPED_004351,,,Doped_Semiconductor,,,AlSb_As,AlSb + As @ 5.0e+15 cm^-3,,,As,
Systematic_Generation,,1e+16,AlSb:As_1.0e+16,,Inherited,,,,,,,,,DOPED_004352,,,Doped_Semiconductor,,,AlSb_As,AlSb + As @ 1.0e+16 cm^-3,,,As,
Systematic_Generation,,5e+16,AlSb:As_5.0e+16,,Inherited,,,,,,,,,DOPED_004353,,,Doped_Semiconductor,,,AlSb_As,AlSb + As @ 5.0e+16 cm^-3,,,As,
Systematic_Generation,,1e+17,AlSb:As_1.0e+17,,Inherited,,,,,,,,,DOPED_004354,,,Doped_Semiconductor,,,AlSb_As,AlSb + As @ 1.0e+17 cm^-3,,,As,
Systematic_Generation,,5e+17,AlSb:As_5.0e+17,,Inherited,,,,,,,,,DOPED_004355,,,Doped_Semiconductor,,,AlSb_As,AlSb + As @ 5.0e+17 cm^-3,,,As,
Systematic_Generation,,1e+18,AlSb:As_1.0e+18,,Inherited,,,,,,,,,DOPED_004356,,,Doped_Semiconductor,,,AlSb_As,AlSb + As @ 1.0e+18 cm^-3,,,As,
Systematic_Generation,,5e+18,AlSb:As_5.0e+18,,Inherited,,,,,,,,,DOPED_004357,,,Doped_Semiconductor,,,AlSb_As,AlSb + As @ 5.0e+18 cm^-3,,,As,
Systematic_Generation,,1e+19,AlSb:As_1.0e+19,,Inherited,,,,,,,,,DOPED_004358,,,Doped_Semiconductor,,,AlSb_As,AlSb + As @ 1.0e+19 cm^-3,,,As,
Systematic_Generation,,5e+19,AlSb:As_5.0e+19,,Inherited,,,,,,,,,DOPED_004359,,,Doped_Semiconductor,,,AlSb_As,AlSb + As @ 5.0e+19 cm^-3,,,As,
Systematic_Generation,,1e+20,AlSb:As_1.0e+20,,Inherited,,,,,,,,,DOPED_004360,,,Doped_Semiconductor,,,AlSb_As,AlSb + As @ 1.0e+20 cm^-3,,,As,
Systematic_Generation,,1e+21,AlSb:As_1.0e+21,,Inherited,,,,,,,,,DOPED_004361,,,Doped_Semiconductor,,,AlSb_As,AlSb + As @ 1.0e+21 cm^-3,,,As,
Systematic_Generation,,1000000000000000.0,AlSb:Sb_1.0e+15,,Inherited,,,,,,,,,DOPED_004362,,,Doped_Semiconductor,,,AlSb_Sb,AlSb + Sb @ 1.0e+15 cm^-3,,,Sb,
Systematic_Generation,,5000000000000000.0,AlSb:Sb_5.0e+15,,Inherited,,,,,,,,,DOPED_004363,,,Doped_Semiconductor,,,AlSb_Sb,AlSb + Sb @ 5.0e+15 cm^-3,,,Sb,
Systematic_Generation,,1e+16,AlSb:Sb_1.0e+16,,Inherited,,,,,,,,,DOPED_004364,,,Doped_Semiconductor,,,AlSb_Sb,AlSb + Sb @ 1.0e+16 cm^-3,,,Sb,
Systematic_Generation,,5e+16,AlSb:Sb_5.0e+16,,Inherited,,,,,,,,,DOPED_004365,,,Doped_Semiconductor,,,AlSb_Sb,AlSb + Sb @ 5.0e+16 cm^-3,,,Sb,
Systematic_Generation,,1e+17,AlSb:Sb_1.0e+17,,Inherited,,,,,,,,,DOPED_004366,,,Doped_Semiconductor,,,AlSb_Sb,AlSb + Sb @ 1.0e+17 cm^-3,,,Sb,
Systematic_Generation,,5e+17,AlSb:Sb_5.0e+17,,Inherited,,,,,,,,,DOPED_004367,,,Doped_Semiconductor,,,AlSb_Sb,AlSb + Sb @ 5.0e+17 cm^-3,,,Sb,
Systematic_Generation,,1e+18,AlSb:Sb_1.0e+18,,Inherited,,,,,,,,,DOPED_004368,,,Doped_Semiconductor,,,AlSb_Sb,AlSb + Sb @ 1.0e+18 cm^-3,,,Sb,
Systematic_Generation,,5e+18,AlSb:Sb_5.0e+18,,Inherited,,,,,,,,,DOPED_004369,,,Doped_Semiconductor,,,AlSb_Sb,AlSb + Sb @ 5.0e+18 cm^-3,,,Sb,
Systematic_Generation,,1e+19,AlSb:Sb_1.0e+19,,Inherited,,,,,,,,,DOPED_004370,,,Doped_Semiconductor,,,AlSb_Sb,AlSb + Sb @ 1.0e+19 cm^-3,,,Sb,
Systematic_Generation,,5e+19,AlSb:Sb_5.0e+19,,Inherited,,,,,,,,,DOPED_004371,,,Doped_Semiconductor,,,AlSb_Sb,AlSb + Sb @ 5.0e+19 cm^-3,,,Sb,
Systematic_Generation,,1e+20,AlSb:Sb_1.0e+20,,Inherited,,,,,,,,,DOPED_004372,,,Doped_Semiconductor,,,AlSb_Sb,AlSb + Sb @ 1.0e+20 cm^-3,,,Sb,
Systematic_Generation,,1e+21,AlSb:Sb_1.0e+21,,Inherited,,,,,,,,,DOPED_004373,,,Doped_Semiconductor,,,AlSb_Sb,AlSb + Sb @ 1.0e+21 cm^-3,,,Sb,