source,n_elements,doping_concentration,name,termination,space_group,doping_level,volume_fraction,weight_percent,lattice_c,temperature,reinforcement,matrix,layers,material_id,molecular_weight,deposition_method,type,lattice_b,pdi,formula,composition,lattice_a,thickness_nm,dopant,substrate
Systematic_Generation,,,Ni10V90,,Im-3m,,,,,,,,,ALLOY_002185,,,Binary_Alloy,,,Ni_0.10V_0.90,"Ni:10%, V:90%",3.729,,,
Systematic_Generation,,,Ni20V80,,Pm-3m,,,,,,,,,ALLOY_002186,,,Binary_Alloy,,,Ni_0.20V_0.80,"Ni:20%, V:80%",3.583,,,
Systematic_Generation,,,Ni30V70,,Fm-3m,,,,,,,,,ALLOY_002187,,,Binary_Alloy,,,Ni_0.30V_0.70,"Ni:30%, V:70%",2.767,,,
Systematic_Generation,,,Ni40V60,,P63/mmc,,,,,,,,,ALLOY_002188,,,Binary_Alloy,,,Ni_0.40V_0.60,"Ni:40%, V:60%",3.275,,,
Systematic_Generation,,,Ni50V50,,Pm-3m,,,,,,,,,ALLOY_002189,,,Binary_Alloy,,,Ni_0.50V_0.50,"Ni:50%, V:50%",4.173,,,
Systematic_Generation,,,Ni60V40,,Fm-3m,,,,,,,,,ALLOY_002190,,,Binary_Alloy,,,Ni_0.60V_0.40,"Ni:60%, V:40%",3.032,,,
Systematic_Generation,,,Ni70V30,,P63/mmc,,,,,,,,,ALLOY_002191,,,Binary_Alloy,,,Ni_0.70V_0.30,"Ni:70%, V:30%",3.447,,,
Systematic_Generation,,,Ni80V20,,P63/mmc,,,,,,,,,ALLOY_002192,,,Binary_Alloy,,,Ni_0.80V_0.20,"Ni:80%, V:20%",2.686,,,
Systematic_Generation,,,Ni90V10,,Fm-3m,,,,,,,,,ALLOY_002193,,,Binary_Alloy,,,Ni_0.90V_0.10,"Ni:90%, V:10%",3.678,,,
Systematic_Generation,,,Ni10Nb90,,Pm-3m,,,,,,,,,ALLOY_002194,,,Binary_Alloy,,,Ni_0.10Nb_0.90,"Ni:10%, Nb:90%",2.609,,,
Systematic_Generation,,,Ni20Nb80,,Fm-3m,,,,,,,,,ALLOY_002195,,,Binary_Alloy,,,Ni_0.20Nb_0.80,"Ni:20%, Nb:80%",4.086,,,
Systematic_Generation,,,Ni30Nb70,,Im-3m,,,,,,,,,ALLOY_002196,,,Binary_Alloy,,,Ni_0.30Nb_0.70,"Ni:30%, Nb:70%",2.8,,,
Systematic_Generation,,,Ni40Nb60,,Pm-3m,,,,,,,,,ALLOY_002197,,,Binary_Alloy,,,Ni_0.40Nb_0.60,"Ni:40%, Nb:60%",4.295,,,
Systematic_Generation,,,Ni50Nb50,,Im-3m,,,,,,,,,ALLOY_002198,,,Binary_Alloy,,,Ni_0.50Nb_0.50,"Ni:50%, Nb:50%",3.09,,,
Systematic_Generation,,,Ni60Nb40,,P63/mmc,,,,,,,,,ALLOY_002199,,,Binary_Alloy,,,Ni_0.60Nb_0.40,"Ni:60%, Nb:40%",3.454,,,
Systematic_Generation,,,Ni70Nb30,,Im-3m,,,,,,,,,ALLOY_002200,,,Binary_Alloy,,,Ni_0.70Nb_0.30,"Ni:70%, Nb:30%",3.961,,,
Systematic_Generation,,,Ni80Nb20,,Pm-3m,,,,,,,,,ALLOY_002201,,,Binary_Alloy,,,Ni_0.80Nb_0.20,"Ni:80%, Nb:20%",3.212,,,
Systematic_Generation,,,Ni90Nb10,,P63/mmc,,,,,,,,,ALLOY_002202,,,Binary_Alloy,,,Ni_0.90Nb_0.10,"Ni:90%, Nb:10%",2.696,,,
Systematic_Generation,,,Ti10Cr90,,P63/mmc,,,,,,,,,ALLOY_002203,,,Binary_Alloy,,,Ti_0.10Cr_0.90,"Ti:10%, Cr:90%",3.931,,,
Systematic_Generation,,,Ti20Cr80,,Pm-3m,,,,,,,,,ALLOY_002204,,,Binary_Alloy,,,Ti_0.20Cr_0.80,"Ti:20%, Cr:80%",4.486,,,
Systematic_Generation,,,Ti30Cr70,,Fm-3m,,,,,,,,,ALLOY_002205,,,Binary_Alloy,,,Ti_0.30Cr_0.70,"Ti:30%, Cr:70%",3.818,,,
Systematic_Generation,,,Ti40Cr60,,P63/mmc,,,,,,,,,ALLOY_002206,,,Binary_Alloy,,,Ti_0.40Cr_0.60,"Ti:40%, Cr:60%",3.482,,,
Systematic_Generation,,,Ti50Cr50,,Pm-3m,,,,,,,,,ALLOY_002207,,,Binary_Alloy,,,Ti_0.50Cr_0.50,"Ti:50%, Cr:50%",3.689,,,
Systematic_Generation,,,Ti60Cr40,,Pm-3m,,,,,,,,,ALLOY_002208,,,Binary_Alloy,,,Ti_0.60Cr_0.40,"Ti:60%, Cr:40%",4.491,,,
Systematic_Generation,,,Ti70Cr30,,P63/mmc,,,,,,,,,ALLOY_002209,,,Binary_Alloy,,,Ti_0.70Cr_0.30,"Ti:70%, Cr:30%",4.417,,,
Systematic_Generation,,,Ti80Cr20,,P63/mmc,,,,,,,,,ALLOY_002210,,,Binary_Alloy,,,Ti_0.80Cr_0.20,"Ti:80%, Cr:20%",3.156,,,
Systematic_Generation,,,Ti90Cr10,,Im-3m,,,,,,,,,ALLOY_002211,,,Binary_Alloy,,,Ti_0.90Cr_0.10,"Ti:90%, Cr:10%",4.336,,,
Systematic_Generation,,,Ti10Co90,,Fm-3m,,,,,,,,,ALLOY_002212,,,Binary_Alloy,,,Ti_0.10Co_0.90,"Ti:10%, Co:90%",3.363,,,
Systematic_Generation,,,Ti20Co80,,Im-3m,,,,,,,,,ALLOY_002213,,,Binary_Alloy,,,Ti_0.20Co_0.80,"Ti:20%, Co:80%",2.786,,,
Systematic_Generation,,,Ti30Co70,,Pm-3m,,,,,,,,,ALLOY_002214,,,Binary_Alloy,,,Ti_0.30Co_0.70,"Ti:30%, Co:70%",4.32,,,
Systematic_Generation,,,Ti40Co60,,P63/mmc,,,,,,,,,ALLOY_002215,,,Binary_Alloy,,,Ti_0.40Co_0.60,"Ti:40%, Co:60%",3.568,,,
Systematic_Generation,,,Ti50Co50,,P63/mmc,,,,,,,,,ALLOY_002216,,,Binary_Alloy,,,Ti_0.50Co_0.50,"Ti:50%, Co:50%",4.383,,,
Systematic_Generation,,,Ti60Co40,,Im-3m,,,,,,,,,ALLOY_002217,,,Binary_Alloy,,,Ti_0.60Co_0.40,"Ti:60%, Co:40%",4.212,,,
Systematic_Generation,,,Ti70Co30,,P63/mmc,,,,,,,,,ALLOY_002218,,,Binary_Alloy,,,Ti_0.70Co_0.30,"Ti:70%, Co:30%",2.679,,,
Systematic_Generation,,,Ti80Co20,,Fm-3m,,,,,,,,,ALLOY_002219,,,Binary_Alloy,,,Ti_0.80Co_0.20,"Ti:80%, Co:20%",3.171,,,
Systematic_Generation,,,Ti90Co10,,Pm-3m,,,,,,,,,ALLOY_002220,,,Binary_Alloy,,,Ti_0.90Co_0.10,"Ti:90%, Co:10%",4.046,,,
Systematic_Generation,,,Ti10Mn90,,Im-3m,,,,,,,,,ALLOY_002221,,,Binary_Alloy,,,Ti_0.10Mn_0.90,"Ti:10%, Mn:90%",4.465,,,
Systematic_Generation,,,Ti20Mn80,,Im-3m,,,,,,,,,ALLOY_002222,,,Binary_Alloy,,,Ti_0.20Mn_0.80,"Ti:20%, Mn:80%",2.514,,,
Systematic_Generation,,,Ti30Mn70,,Fm-3m,,,,,,,,,ALLOY_002223,,,Binary_Alloy,,,Ti_0.30Mn_0.70,"Ti:30%, Mn:70%",3.45,,,
Systematic_Generation,,,Ti40Mn60,,Fm-3m,,,,,,,,,ALLOY_002224,,,Binary_Alloy,,,Ti_0.40Mn_0.60,"Ti:40%, Mn:60%",2.555,,,
Systematic_Generation,,,Ti50Mn50,,Im-3m,,,,,,,,,ALLOY_002225,,,Binary_Alloy,,,Ti_0.50Mn_0.50,"Ti:50%, Mn:50%",4.115,,,
Systematic_Generation,,,Ti60Mn40,,P63/mmc,,,,,,,,,ALLOY_002226,,,Binary_Alloy,,,Ti_0.60Mn_0.40,"Ti:60%, Mn:40%",4.106,,,
Systematic_Generation,,,Ti70Mn30,,Im-3m,,,,,,,,,ALLOY_002227,,,Binary_Alloy,,,Ti_0.70Mn_0.30,"Ti:70%, Mn:30%",3.888,,,
Systematic_Generation,,,Ti80Mn20,,P63/mmc,,,,,,,,,ALLOY_002228,,,Binary_Alloy,,,Ti_0.80Mn_0.20,"Ti:80%, Mn:20%",4.216,,,
Systematic_Generation,,,Ti90Mn10,,Pm-3m,,,,,,,,,ALLOY_002229,,,Binary_Alloy,,,Ti_0.90Mn_0.10,"Ti:90%, Mn:10%",4.394,,,
Systematic_Generation,,,Ti10Mg90,,Im-3m,,,,,,,,,ALLOY_002230,,,Binary_Alloy,,,Ti_0.10Mg_0.90,"Ti:10%, Mg:90%",3.012,,,
Systematic_Generation,,,Ti20Mg80,,P63/mmc,,,,,,,,,ALLOY_002231,,,Binary_Alloy,,,Ti_0.20Mg_0.80,"Ti:20%, Mg:80%",2.659,,,
Systematic_Generation,,,Ti30Mg70,,P63/mmc,,,,,,,,,ALLOY_002232,,,Binary_Alloy,,,Ti_0.30Mg_0.70,"Ti:30%, Mg:70%",3.543,,,
Systematic_Generation,,,Ti40Mg60,,Fm-3m,,,,,,,,,ALLOY_002233,,,Binary_Alloy,,,Ti_0.40Mg_0.60,"Ti:40%, Mg:60%",3.287,,,
Systematic_Generation,,,Ti50Mg50,,P63/mmc,,,,,,,,,ALLOY_002234,,,Binary_Alloy,,,Ti_0.50Mg_0.50,"Ti:50%, Mg:50%",3.979,,,
Systematic_Generation,,,Ti60Mg40,,Im-3m,,,,,,,,,ALLOY_002235,,,Binary_Alloy,,,Ti_0.60Mg_0.40,"Ti:60%, Mg:40%",3.472,,,
Systematic_Generation,,,Ti70Mg30,,Im-3m,,,,,,,,,ALLOY_002236,,,Binary_Alloy,,,Ti_0.70Mg_0.30,"Ti:70%, Mg:30%",4.444,,,
Systematic_Generation,,,Ti80Mg20,,Im-3m,,,,,,,,,ALLOY_002237,,,Binary_Alloy,,,Ti_0.80Mg_0.20,"Ti:80%, Mg:20%",3.244,,,
Systematic_Generation,,,Ti90Mg10,,Im-3m,,,,,,,,,ALLOY_002238,,,Binary_Alloy,,,Ti_0.90Mg_0.10,"Ti:90%, Mg:10%",2.517,,,
Systematic_Generation,,,Ti10Zn90,,P63/mmc,,,,,,,,,ALLOY_002239,,,Binary_Alloy,,,Ti_0.10Zn_0.90,"Ti:10%, Zn:90%",3.736,,,
Systematic_Generation,,,Ti20Zn80,,P63/mmc,,,,,,,,,ALLOY_002240,,,Binary_Alloy,,,Ti_0.20Zn_0.80,"Ti:20%, Zn:80%",2.7,,,
Systematic_Generation,,,Ti30Zn70,,Im-3m,,,,,,,,,ALLOY_002241,,,Binary_Alloy,,,Ti_0.30Zn_0.70,"Ti:30%, Zn:70%",4.491,,,
Systematic_Generation,,,Ti40Zn60,,Pm-3m,,,,,,,,,ALLOY_002242,,,Binary_Alloy,,,Ti_0.40Zn_0.60,"Ti:40%, Zn:60%",4.339,,,
Systematic_Generation,,,Ti50Zn50,,Pm-3m,,,,,,,,,ALLOY_002243,,,Binary_Alloy,,,Ti_0.50Zn_0.50,"Ti:50%, Zn:50%",2.909,,,
Systematic_Generation,,,Ti60Zn40,,P63/mmc,,,,,,,,,ALLOY_002244,,,Binary_Alloy,,,Ti_0.60Zn_0.40,"Ti:60%, Zn:40%",4.252,,,
Systematic_Generation,,,Ti70Zn30,,Fm-3m,,,,,,,,,ALLOY_002245,,,Binary_Alloy,,,Ti_0.70Zn_0.30,"Ti:70%, Zn:30%",3.846,,,
Systematic_Generation,,,Ti80Zn20,,Im-3m,,,,,,,,,ALLOY_002246,,,Binary_Alloy,,,Ti_0.80Zn_0.20,"Ti:80%, Zn:20%",3.357,,,
Systematic_Generation,,,Ti90Zn10,,Fm-3m,,,,,,,,,ALLOY_002247,,,Binary_Alloy,,,Ti_0.90Zn_0.10,"Ti:90%, Zn:10%",3.23,,,
Systematic_Generation,,,Ti10Si90,,P63/mmc,,,,,,,,,ALLOY_002248,,,Binary_Alloy,,,Ti_0.10Si_0.90,"Ti:10%, Si:90%",4.481,,,
Systematic_Generation,,,Ti20Si80,,P63/mmc,,,,,,,,,ALLOY_002249,,,Binary_Alloy,,,Ti_0.20Si_0.80,"Ti:20%, Si:80%",3.861,,,
Systematic_Generation,,,Ti30Si70,,Fm-3m,,,,,,,,,ALLOY_002250,,,Binary_Alloy,,,Ti_0.30Si_0.70,"Ti:30%, Si:70%",3.239,,,
Systematic_Generation,,,Ti40Si60,,Im-3m,,,,,,,,,ALLOY_002251,,,Binary_Alloy,,,Ti_0.40Si_0.60,"Ti:40%, Si:60%",2.637,,,
Systematic_Generation,,,Ti50Si50,,Pm-3m,,,,,,,,,ALLOY_002252,,,Binary_Alloy,,,Ti_0.50Si_0.50,"Ti:50%, Si:50%",3.721,,,
Systematic_Generation,,,Ti60Si40,,Fm-3m,,,,,,,,,ALLOY_002253,,,Binary_Alloy,,,Ti_0.60Si_0.40,"Ti:60%, Si:40%",3.304,,,
Systematic_Generation,,,Ti70Si30,,P63/mmc,,,,,,,,,ALLOY_002254,,,Binary_Alloy,,,Ti_0.70Si_0.30,"Ti:70%, Si:30%",3.512,,,
Systematic_Generation,,,Ti80Si20,,Fm-3m,,,,,,,,,ALLOY_002255,,,Binary_Alloy,,,Ti_0.80Si_0.20,"Ti:80%, Si:20%",4.376,,,
Systematic_Generation,,,Ti90Si10,,Fm-3m,,,,,,,,,ALLOY_002256,,,Binary_Alloy,,,Ti_0.90Si_0.10,"Ti:90%, Si:10%",4.015,,,
Systematic_Generation,,,Ti10Mo90,,Fm-3m,,,,,,,,,ALLOY_002257,,,Binary_Alloy,,,Ti_0.10Mo_0.90,"Ti:10%, Mo:90%",4.206,,,
Systematic_Generation,,,Ti20Mo80,,P63/mmc,,,,,,,,,ALLOY_002258,,,Binary_Alloy,,,Ti_0.20Mo_0.80,"Ti:20%, Mo:80%",4.481,,,
Systematic_Generation,,,Ti30Mo70,,Pm-3m,,,,,,,,,ALLOY_002259,,,Binary_Alloy,,,Ti_0.30Mo_0.70,"Ti:30%, Mo:70%",4.195,,,
Systematic_Generation,,,Ti40Mo60,,Pm-3m,,,,,,,,,ALLOY_002260,,,Binary_Alloy,,,Ti_0.40Mo_0.60,"Ti:40%, Mo:60%",4.385,,,
Systematic_Generation,,,Ti50Mo50,,P63/mmc,,,,,,,,,ALLOY_002261,,,Binary_Alloy,,,Ti_0.50Mo_0.50,"Ti:50%, Mo:50%",3.857,,,
Systematic_Generation,,,Ti60Mo40,,Pm-3m,,,,,,,,,ALLOY_002262,,,Binary_Alloy,,,Ti_0.60Mo_0.40,"Ti:60%, Mo:40%",2.517,,,
Systematic_Generation,,,Ti70Mo30,,P63/mmc,,,,,,,,,ALLOY_002263,,,Binary_Alloy,,,Ti_0.70Mo_0.30,"Ti:70%, Mo:30%",3.998,,,
Systematic_Generation,,,Ti80Mo20,,Fm-3m,,,,,,,,,ALLOY_002264,,,Binary_Alloy,,,Ti_0.80Mo_0.20,"Ti:80%, Mo:20%",3.835,,,
Systematic_Generation,,,Ti90Mo10,,Im-3m,,,,,,,,,ALLOY_002265,,,Binary_Alloy,,,Ti_0.90Mo_0.10,"Ti:90%, Mo:10%",3.414,,,
Systematic_Generation,,,Ti10W90,,Im-3m,,,,,,,,,ALLOY_002266,,,Binary_Alloy,,,Ti_0.10W_0.90,"Ti:10%, W:90%",4.046,,,
Systematic_Generation,,,Ti20W80,,Fm-3m,,,,,,,,,ALLOY_002267,,,Binary_Alloy,,,Ti_0.20W_0.80,"Ti:20%, W:80%",3.91,,,
Systematic_Generation,,,Ti30W70,,Im-3m,,,,,,,,,ALLOY_002268,,,Binary_Alloy,,,Ti_0.30W_0.70,"Ti:30%, W:70%",4.454,,,
Systematic_Generation,,,Ti40W60,,P63/mmc,,,,,,,,,ALLOY_002269,,,Binary_Alloy,,,Ti_0.40W_0.60,"Ti:40%, W:60%",2.76,,,
Systematic_Generation,,,Ti50W50,,P63/mmc,,,,,,,,,ALLOY_002270,,,Binary_Alloy,,,Ti_0.50W_0.50,"Ti:50%, W:50%",4.237,,,
Systematic_Generation,,,Ti60W40,,Im-3m,,,,,,,,,ALLOY_002271,,,Binary_Alloy,,,Ti_0.60W_0.40,"Ti:60%, W:40%",2.774,,,
Systematic_Generation,,,Ti70W30,,P63/mmc,,,,,,,,,ALLOY_002272,,,Binary_Alloy,,,Ti_0.70W_0.30,"Ti:70%, W:30%",4.477,,,
Systematic_Generation,,,Ti80W20,,Fm-3m,,,,,,,,,ALLOY_002273,,,Binary_Alloy,,,Ti_0.80W_0.20,"Ti:80%, W:20%",3.93,,,
Systematic_Generation,,,Ti90W10,,Im-3m,,,,,,,,,ALLOY_002274,,,Binary_Alloy,,,Ti_0.90W_0.10,"Ti:90%, W:10%",4.019,,,
Systematic_Generation,,,Ti10V90,,Im-3m,,,,,,,,,ALLOY_002275,,,Binary_Alloy,,,Ti_0.10V_0.90,"Ti:10%, V:90%",2.775,,,
Systematic_Generation,,,Ti20V80,,Pm-3m,,,,,,,,,ALLOY_002276,,,Binary_Alloy,,,Ti_0.20V_0.80,"Ti:20%, V:80%",4.317,,,
Systematic_Generation,,,Ti30V70,,Pm-3m,,,,,,,,,ALLOY_002277,,,Binary_Alloy,,,Ti_0.30V_0.70,"Ti:30%, V:70%",2.723,,,
Systematic_Generation,,,Ti40V60,,P63/mmc,,,,,,,,,ALLOY_002278,,,Binary_Alloy,,,Ti_0.40V_0.60,"Ti:40%, V:60%",3.688,,,
Systematic_Generation,,,Ti50V50,,Im-3m,,,,,,,,,ALLOY_002279,,,Binary_Alloy,,,Ti_0.50V_0.50,"Ti:50%, V:50%",3.093,,,
Systematic_Generation,,,Ti60V40,,Fm-3m,,,,,,,,,ALLOY_002280,,,Binary_Alloy,,,Ti_0.60V_0.40,"Ti:60%, V:40%",3.947,,,
Systematic_Generation,,,Ti70V30,,Pm-3m,,,,,,,,,ALLOY_002281,,,Binary_Alloy,,,Ti_0.70V_0.30,"Ti:70%, V:30%",3.018,,,
Systematic_Generation,,,Ti80V20,,Im-3m,,,,,,,,,ALLOY_002282,,,Binary_Alloy,,,Ti_0.80V_0.20,"Ti:80%, V:20%",3.671,,,
Systematic_Generation,,,Ti90V10,,Pm-3m,,,,,,,,,ALLOY_002283,,,Binary_Alloy,,,Ti_0.90V_0.10,"Ti:90%, V:10%",2.584,,,
Systematic_Generation,,,Ti10Nb90,,Pm-3m,,,,,,,,,ALLOY_002284,,,Binary_Alloy,,,Ti_0.10Nb_0.90,"Ti:10%, Nb:90%",4.379,,,
Systematic_Generation,,,Ti20Nb80,,Pm-3m,,,,,,,,,ALLOY_002285,,,Binary_Alloy,,,Ti_0.20Nb_0.80,"Ti:20%, Nb:80%",2.704,,,
Systematic_Generation,,,Ti30Nb70,,Pm-3m,,,,,,,,,ALLOY_002286,,,Binary_Alloy,,,Ti_0.30Nb_0.70,"Ti:30%, Nb:70%",3.345,,,
Systematic_Generation,,,Ti40Nb60,,Im-3m,,,,,,,,,ALLOY_002287,,,Binary_Alloy,,,Ti_0.40Nb_0.60,"Ti:40%, Nb:60%",3.345,,,
Systematic_Generation,,,Ti50Nb50,,Pm-3m,,,,,,,,,ALLOY_002288,,,Binary_Alloy,,,Ti_0.50Nb_0.50,"Ti:50%, Nb:50%",3.516,,,
Systematic_Generation,,,Ti60Nb40,,Fm-3m,,,,,,,,,ALLOY_002289,,,Binary_Alloy,,,Ti_0.60Nb_0.40,"Ti:60%, Nb:40%",3.626,,,
Systematic_Generation,,,Ti70Nb30,,Fm-3m,,,,,,,,,ALLOY_002290,,,Binary_Alloy,,,Ti_0.70Nb_0.30,"Ti:70%, Nb:30%",2.869,,,
Systematic_Generation,,,Ti80Nb20,,Im-3m,,,,,,,,,ALLOY_002291,,,Binary_Alloy,,,Ti_0.80Nb_0.20,"Ti:80%, Nb:20%",2.955,,,
Systematic_Generation,,,Ti90Nb10,,P63/mmc,,,,,,,,,ALLOY_002292,,,Binary_Alloy,,,Ti_0.90Nb_0.10,"Ti:90%, Nb:10%",4.01,,,
Systematic_Generation,,,Cr10Co90,,Pm-3m,,,,,,,,,ALLOY_002293,,,Binary_Alloy,,,Cr_0.10Co_0.90,"Cr:10%, Co:90%",2.922,,,
Systematic_Generation,,,Cr20Co80,,Im-3m,,,,,,,,,ALLOY_002294,,,Binary_Alloy,,,Cr_0.20Co_0.80,"Cr:20%, Co:80%",2.823,,,
Systematic_Generation,,,Cr30Co70,,Fm-3m,,,,,,,,,ALLOY_002295,,,Binary_Alloy,,,Cr_0.30Co_0.70,"Cr:30%, Co:70%",2.611,,,
Systematic_Generation,,,Cr40Co60,,P63/mmc,,,,,,,,,ALLOY_002296,,,Binary_Alloy,,,Cr_0.40Co_0.60,"Cr:40%, Co:60%",3.068,,,
Systematic_Generation,,,Cr50Co50,,Pm-3m,,,,,,,,,ALLOY_002297,,,Binary_Alloy,,,Cr_0.50Co_0.50,"Cr:50%, Co:50%",2.996,,,
Systematic_Generation,,,Cr60Co40,,Im-3m,,,,,,,,,ALLOY_002298,,,Binary_Alloy,,,Cr_0.60Co_0.40,"Cr:60%, Co:40%",3.369,,,
Systematic_Generation,,,Cr70Co30,,Im-3m,,,,,,,,,ALLOY_002299,,,Binary_Alloy,,,Cr_0.70Co_0.30,"Cr:70%, Co:30%",4.302,,,
Systematic_Generation,,,Cr80Co20,,Im-3m,,,,,,,,,ALLOY_002300,,,Binary_Alloy,,,Cr_0.80Co_0.20,"Cr:80%, Co:20%",3.142,,,
Systematic_Generation,,,Cr90Co10,,P63/mmc,,,,,,,,,ALLOY_002301,,,Binary_Alloy,,,Cr_0.90Co_0.10,"Cr:90%, Co:10%",3.158,,,
Systematic_Generation,,,Cr10Mn90,,Pm-3m,,,,,,,,,ALLOY_002302,,,Binary_Alloy,,,Cr_0.10Mn_0.90,"Cr:10%, Mn:90%",2.572,,,
Systematic_Generation,,,Cr20Mn80,,Im-3m,,,,,,,,,ALLOY_002303,,,Binary_Alloy,,,Cr_0.20Mn_0.80,"Cr:20%, Mn:80%",3.388,,,
Systematic_Generation,,,Cr30Mn70,,Fm-3m,,,,,,,,,ALLOY_002304,,,Binary_Alloy,,,Cr_0.30Mn_0.70,"Cr:30%, Mn:70%",3.498,,,
Systematic_Generation,,,Cr40Mn60,,Fm-3m,,,,,,,,,ALLOY_002305,,,Binary_Alloy,,,Cr_0.40Mn_0.60,"Cr:40%, Mn:60%",3.353,,,
Systematic_Generation,,,Cr50Mn50,,Fm-3m,,,,,,,,,ALLOY_002306,,,Binary_Alloy,,,Cr_0.50Mn_0.50,"Cr:50%, Mn:50%",3.055,,,
Systematic_Generation,,,Cr60Mn40,,Pm-3m,,,,,,,,,ALLOY_002307,,,Binary_Alloy,,,Cr_0.60Mn_0.40,"Cr:60%, Mn:40%",4.336,,,
Systematic_Generation,,,Cr70Mn30,,Im-3m,,,,,,,,,ALLOY_002308,,,Binary_Alloy,,,Cr_0.70Mn_0.30,"Cr:70%, Mn:30%",4.328,,,
Systematic_Generation,,,Cr80Mn20,,Im-3m,,,,,,,,,ALLOY_002309,,,Binary_Alloy,,,Cr_0.80Mn_0.20,"Cr:80%, Mn:20%",3.763,,,
Systematic_Generation,,,Cr90Mn10,,P63/mmc,,,,,,,,,ALLOY_002310,,,Binary_Alloy,,,Cr_0.90Mn_0.10,"Cr:90%, Mn:10%",3.754,,,
Systematic_Generation,,,Cr10Mg90,,Im-3m,,,,,,,,,ALLOY_002311,,,Binary_Alloy,,,Cr_0.10Mg_0.90,"Cr:10%, Mg:90%",4.067,,,
Systematic_Generation,,,Cr20Mg80,,Fm-3m,,,,,,,,,ALLOY_002312,,,Binary_Alloy,,,Cr_0.20Mg_0.80,"Cr:20%, Mg:80%",4.433,,,
Systematic_Generation,,,Cr30Mg70,,Fm-3m,,,,,,,,,ALLOY_002313,,,Binary_Alloy,,,Cr_0.30Mg_0.70,"Cr:30%, Mg:70%",2.941,,,
Systematic_Generation,,,Cr40Mg60,,Im-3m,,,,,,,,,ALLOY_002314,,,Binary_Alloy,,,Cr_0.40Mg_0.60,"Cr:40%, Mg:60%",3.0,,,
Systematic_Generation,,,Cr50Mg50,,Im-3m,,,,,,,,,ALLOY_002315,,,Binary_Alloy,,,Cr_0.50Mg_0.50,"Cr:50%, Mg:50%",3.684,,,
Systematic_Generation,,,Cr60Mg40,,Pm-3m,,,,,,,,,ALLOY_002316,,,Binary_Alloy,,,Cr_0.60Mg_0.40,"Cr:60%, Mg:40%",3.005,,,
Systematic_Generation,,,Cr70Mg30,,Pm-3m,,,,,,,,,ALLOY_002317,,,Binary_Alloy,,,Cr_0.70Mg_0.30,"Cr:70%, Mg:30%",3.295,,,
Systematic_Generation,,,Cr80Mg20,,P63/mmc,,,,,,,,,ALLOY_002318,,,Binary_Alloy,,,Cr_0.80Mg_0.20,"Cr:80%, Mg:20%",2.719,,,
Systematic_Generation,,,Cr90Mg10,,Fm-3m,,,,,,,,,ALLOY_002319,,,Binary_Alloy,,,Cr_0.90Mg_0.10,"Cr:90%, Mg:10%",3.622,,,
Systematic_Generation,,,Cr10Zn90,,Im-3m,,,,,,,,,ALLOY_002320,,,Binary_Alloy,,,Cr_0.10Zn_0.90,"Cr:10%, Zn:90%",4.238,,,
Systematic_Generation,,,Cr20Zn80,,Pm-3m,,,,,,,,,ALLOY_002321,,,Binary_Alloy,,,Cr_0.20Zn_0.80,"Cr:20%, Zn:80%",3.747,,,
Systematic_Generation,,,Cr30Zn70,,Im-3m,,,,,,,,,ALLOY_002322,,,Binary_Alloy,,,Cr_0.30Zn_0.70,"Cr:30%, Zn:70%",4.264,,,
Systematic_Generation,,,Cr40Zn60,,P63/mmc,,,,,,,,,ALLOY_002323,,,Binary_Alloy,,,Cr_0.40Zn_0.60,"Cr:40%, Zn:60%",3.4,,,
Systematic_Generation,,,Cr50Zn50,,P63/mmc,,,,,,,,,ALLOY_002324,,,Binary_Alloy,,,Cr_0.50Zn_0.50,"Cr:50%, Zn:50%",3.612,,,
Systematic_Generation,,,Cr60Zn40,,Im-3m,,,,,,,,,ALLOY_002325,,,Binary_Alloy,,,Cr_0.60Zn_0.40,"Cr:60%, Zn:40%",3.696,,,
Systematic_Generation,,,Cr70Zn30,,Fm-3m,,,,,,,,,ALLOY_002326,,,Binary_Alloy,,,Cr_0.70Zn_0.30,"Cr:70%, Zn:30%",2.799,,,
Systematic_Generation,,,Cr80Zn20,,Fm-3m,,,,,,,,,ALLOY_002327,,,Binary_Alloy,,,Cr_0.80Zn_0.20,"Cr:80%, Zn:20%",4.466,,,
Systematic_Generation,,,Cr90Zn10,,P63/mmc,,,,,,,,,ALLOY_002328,,,Binary_Alloy,,,Cr_0.90Zn_0.10,"Cr:90%, Zn:10%",3.383,,,
Systematic_Generation,,,Cr10Si90,,Pm-3m,,,,,,,,,ALLOY_002329,,,Binary_Alloy,,,Cr_0.10Si_0.90,"Cr:10%, Si:90%",3.765,,,
Systematic_Generation,,,Cr20Si80,,P63/mmc,,,,,,,,,ALLOY_002330,,,Binary_Alloy,,,Cr_0.20Si_0.80,"Cr:20%, Si:80%",2.804,,,
Systematic_Generation,,,Cr30Si70,,Pm-3m,,,,,,,,,ALLOY_002331,,,Binary_Alloy,,,Cr_0.30Si_0.70,"Cr:30%, Si:70%",3.501,,,
Systematic_Generation,,,Cr40Si60,,P63/mmc,,,,,,,,,ALLOY_002332,,,Binary_Alloy,,,Cr_0.40Si_0.60,"Cr:40%, Si:60%",4.148,,,
Systematic_Generation,,,Cr50Si50,,Pm-3m,,,,,,,,,ALLOY_002333,,,Binary_Alloy,,,Cr_0.50Si_0.50,"Cr:50%, Si:50%",3.52,,,
Systematic_Generation,,,Cr60Si40,,Pm-3m,,,,,,,,,ALLOY_002334,,,Binary_Alloy,,,Cr_0.60Si_0.40,"Cr:60%, Si:40%",3.851,,,
Systematic_Generation,,,Cr70Si30,,P63/mmc,,,,,,,,,ALLOY_002335,,,Binary_Alloy,,,Cr_0.70Si_0.30,"Cr:70%, Si:30%",4.278,,,
Systematic_Generation,,,Cr80Si20,,Pm-3m,,,,,,,,,ALLOY_002336,,,Binary_Alloy,,,Cr_0.80Si_0.20,"Cr:80%, Si:20%",4.477,,,
Systematic_Generation,,,Cr90Si10,,Pm-3m,,,,,,,,,ALLOY_002337,,,Binary_Alloy,,,Cr_0.90Si_0.10,"Cr:90%, Si:10%",4.32,,,
Systematic_Generation,,,Cr10Mo90,,Im-3m,,,,,,,,,ALLOY_002338,,,Binary_Alloy,,,Cr_0.10Mo_0.90,"Cr:10%, Mo:90%",3.332,,,
Systematic_Generation,,,Cr20Mo80,,Im-3m,,,,,,,,,ALLOY_002339,,,Binary_Alloy,,,Cr_0.20Mo_0.80,"Cr:20%, Mo:80%",2.969,,,
Systematic_Generation,,,Cr30Mo70,,Im-3m,,,,,,,,,ALLOY_002340,,,Binary_Alloy,,,Cr_0.30Mo_0.70,"Cr:30%, Mo:70%",4.399,,,
Systematic_Generation,,,Cr40Mo60,,Fm-3m,,,,,,,,,ALLOY_002341,,,Binary_Alloy,,,Cr_0.40Mo_0.60,"Cr:40%, Mo:60%",3.005,,,
Systematic_Generation,,,Cr50Mo50,,Fm-3m,,,,,,,,,ALLOY_002342,,,Binary_Alloy,,,Cr_0.50Mo_0.50,"Cr:50%, Mo:50%",3.955,,,
Systematic_Generation,,,Cr60Mo40,,Pm-3m,,,,,,,,,ALLOY_002343,,,Binary_Alloy,,,Cr_0.60Mo_0.40,"Cr:60%, Mo:40%",2.52,,,
Systematic_Generation,,,Cr70Mo30,,Im-3m,,,,,,,,,ALLOY_002344,,,Binary_Alloy,,,Cr_0.70Mo_0.30,"Cr:70%, Mo:30%",4.083,,,
Systematic_Generation,,,Cr80Mo20,,Pm-3m,,,,,,,,,ALLOY_002345,,,Binary_Alloy,,,Cr_0.80Mo_0.20,"Cr:80%, Mo:20%",4.2,,,
Systematic_Generation,,,Cr90Mo10,,Pm-3m,,,,,,,,,ALLOY_002346,,,Binary_Alloy,,,Cr_0.90Mo_0.10,"Cr:90%, Mo:10%",2.823,,,
Systematic_Generation,,,Cr10W90,,P63/mmc,,,,,,,,,ALLOY_002347,,,Binary_Alloy,,,Cr_0.10W_0.90,"Cr:10%, W:90%",2.937,,,
Systematic_Generation,,,Cr20W80,,P63/mmc,,,,,,,,,ALLOY_002348,,,Binary_Alloy,,,Cr_0.20W_0.80,"Cr:20%, W:80%",3.214,,,
Systematic_Generation,,,Cr30W70,,Im-3m,,,,,,,,,ALLOY_002349,,,Binary_Alloy,,,Cr_0.30W_0.70,"Cr:30%, W:70%",2.762,,,