source,n_elements,doping_concentration,name,termination,space_group,doping_level,volume_fraction,weight_percent,lattice_c,temperature,reinforcement,matrix,layers,material_id,molecular_weight,deposition_method,type,lattice_b,pdi,formula,composition,lattice_a,thickness_nm,dopant,substrate
Systematic_Generation,,,VC-VA_40_60_Mn500k,,,,,,,,,,,COPOLY_007124,500000,,Copolymer,,,Vinyl_chloride:Vinyl_acetate,"Vinyl_chloride:40%, Vinyl_acetate:60%",,,,
Systematic_Generation,,,VC-VA_50_50_Mn50k,,,,,,,,,,,COPOLY_007125,50000,,Copolymer,,,Vinyl_chloride:Vinyl_acetate,"Vinyl_chloride:50%, Vinyl_acetate:50%",,,,
Systematic_Generation,,,VC-VA_50_50_Mn100k,,,,,,,,,,,COPOLY_007126,100000,,Copolymer,,,Vinyl_chloride:Vinyl_acetate,"Vinyl_chloride:50%, Vinyl_acetate:50%",,,,
Systematic_Generation,,,VC-VA_50_50_Mn200k,,,,,,,,,,,COPOLY_007127,200000,,Copolymer,,,Vinyl_chloride:Vinyl_acetate,"Vinyl_chloride:50%, Vinyl_acetate:50%",,,,
Systematic_Generation,,,VC-VA_50_50_Mn500k,,,,,,,,,,,COPOLY_007128,500000,,Copolymer,,,Vinyl_chloride:Vinyl_acetate,"Vinyl_chloride:50%, Vinyl_acetate:50%",,,,
Systematic_Generation,,,VC-VA_60_40_Mn50k,,,,,,,,,,,COPOLY_007129,50000,,Copolymer,,,Vinyl_chloride:Vinyl_acetate,"Vinyl_chloride:60%, Vinyl_acetate:40%",,,,
Systematic_Generation,,,VC-VA_60_40_Mn100k,,,,,,,,,,,COPOLY_007130,100000,,Copolymer,,,Vinyl_chloride:Vinyl_acetate,"Vinyl_chloride:60%, Vinyl_acetate:40%",,,,
Systematic_Generation,,,VC-VA_60_40_Mn200k,,,,,,,,,,,COPOLY_007131,200000,,Copolymer,,,Vinyl_chloride:Vinyl_acetate,"Vinyl_chloride:60%, Vinyl_acetate:40%",,,,
Systematic_Generation,,,VC-VA_60_40_Mn500k,,,,,,,,,,,COPOLY_007132,500000,,Copolymer,,,Vinyl_chloride:Vinyl_acetate,"Vinyl_chloride:60%, Vinyl_acetate:40%",,,,
Systematic_Generation,,,VC-VA_70_30_Mn50k,,,,,,,,,,,COPOLY_007133,50000,,Copolymer,,,Vinyl_chloride:Vinyl_acetate,"Vinyl_chloride:70%, Vinyl_acetate:30%",,,,
Systematic_Generation,,,VC-VA_70_30_Mn100k,,,,,,,,,,,COPOLY_007134,100000,,Copolymer,,,Vinyl_chloride:Vinyl_acetate,"Vinyl_chloride:70%, Vinyl_acetate:30%",,,,
Systematic_Generation,,,VC-VA_70_30_Mn200k,,,,,,,,,,,COPOLY_007135,200000,,Copolymer,,,Vinyl_chloride:Vinyl_acetate,"Vinyl_chloride:70%, Vinyl_acetate:30%",,,,
Systematic_Generation,,,VC-VA_70_30_Mn500k,,,,,,,,,,,COPOLY_007136,500000,,Copolymer,,,Vinyl_chloride:Vinyl_acetate,"Vinyl_chloride:70%, Vinyl_acetate:30%",,,,
Systematic_Generation,,,VC-VA_80_20_Mn50k,,,,,,,,,,,COPOLY_007137,50000,,Copolymer,,,Vinyl_chloride:Vinyl_acetate,"Vinyl_chloride:80%, Vinyl_acetate:20%",,,,
Systematic_Generation,,,VC-VA_80_20_Mn100k,,,,,,,,,,,COPOLY_007138,100000,,Copolymer,,,Vinyl_chloride:Vinyl_acetate,"Vinyl_chloride:80%, Vinyl_acetate:20%",,,,
Systematic_Generation,,,VC-VA_80_20_Mn200k,,,,,,,,,,,COPOLY_007139,200000,,Copolymer,,,Vinyl_chloride:Vinyl_acetate,"Vinyl_chloride:80%, Vinyl_acetate:20%",,,,
Systematic_Generation,,,VC-VA_80_20_Mn500k,,,,,,,,,,,COPOLY_007140,500000,,Copolymer,,,Vinyl_chloride:Vinyl_acetate,"Vinyl_chloride:80%, Vinyl_acetate:20%",,,,
Systematic_Generation,,,VC-VA_90_10_Mn50k,,,,,,,,,,,COPOLY_007141,50000,,Copolymer,,,Vinyl_chloride:Vinyl_acetate,"Vinyl_chloride:90%, Vinyl_acetate:10%",,,,
Systematic_Generation,,,VC-VA_90_10_Mn100k,,,,,,,,,,,COPOLY_007142,100000,,Copolymer,,,Vinyl_chloride:Vinyl_acetate,"Vinyl_chloride:90%, Vinyl_acetate:10%",,,,
Systematic_Generation,,,VC-VA_90_10_Mn200k,,,,,,,,,,,COPOLY_007143,200000,,Copolymer,,,Vinyl_chloride:Vinyl_acetate,"Vinyl_chloride:90%, Vinyl_acetate:10%",,,,
Systematic_Generation,,,VC-VA_90_10_Mn500k,,,,,,,,,,,COPOLY_007144,500000,,Copolymer,,,Vinyl_chloride:Vinyl_acetate,"Vinyl_chloride:90%, Vinyl_acetate:10%",,,,
Systematic_Generation,,,MMA-BA_10_90_Mn50k,,,,,,,,,,,COPOLY_007145,50000,,Copolymer,,,Methyl_methacrylate:Butyl_acrylate,"Methyl_methacrylate:10%, Butyl_acrylate:90%",,,,
Systematic_Generation,,,MMA-BA_10_90_Mn100k,,,,,,,,,,,COPOLY_007146,100000,,Copolymer,,,Methyl_methacrylate:Butyl_acrylate,"Methyl_methacrylate:10%, Butyl_acrylate:90%",,,,
Systematic_Generation,,,MMA-BA_10_90_Mn200k,,,,,,,,,,,COPOLY_007147,200000,,Copolymer,,,Methyl_methacrylate:Butyl_acrylate,"Methyl_methacrylate:10%, Butyl_acrylate:90%",,,,
Systematic_Generation,,,MMA-BA_10_90_Mn500k,,,,,,,,,,,COPOLY_007148,500000,,Copolymer,,,Methyl_methacrylate:Butyl_acrylate,"Methyl_methacrylate:10%, Butyl_acrylate:90%",,,,
Systematic_Generation,,,MMA-BA_20_80_Mn50k,,,,,,,,,,,COPOLY_007149,50000,,Copolymer,,,Methyl_methacrylate:Butyl_acrylate,"Methyl_methacrylate:20%, Butyl_acrylate:80%",,,,
Systematic_Generation,,,MMA-BA_20_80_Mn100k,,,,,,,,,,,COPOLY_007150,100000,,Copolymer,,,Methyl_methacrylate:Butyl_acrylate,"Methyl_methacrylate:20%, Butyl_acrylate:80%",,,,
Systematic_Generation,,,MMA-BA_20_80_Mn200k,,,,,,,,,,,COPOLY_007151,200000,,Copolymer,,,Methyl_methacrylate:Butyl_acrylate,"Methyl_methacrylate:20%, Butyl_acrylate:80%",,,,
Systematic_Generation,,,MMA-BA_20_80_Mn500k,,,,,,,,,,,COPOLY_007152,500000,,Copolymer,,,Methyl_methacrylate:Butyl_acrylate,"Methyl_methacrylate:20%, Butyl_acrylate:80%",,,,
Systematic_Generation,,,MMA-BA_30_70_Mn50k,,,,,,,,,,,COPOLY_007153,50000,,Copolymer,,,Methyl_methacrylate:Butyl_acrylate,"Methyl_methacrylate:30%, Butyl_acrylate:70%",,,,
Systematic_Generation,,,MMA-BA_30_70_Mn100k,,,,,,,,,,,COPOLY_007154,100000,,Copolymer,,,Methyl_methacrylate:Butyl_acrylate,"Methyl_methacrylate:30%, Butyl_acrylate:70%",,,,
Systematic_Generation,,,MMA-BA_30_70_Mn200k,,,,,,,,,,,COPOLY_007155,200000,,Copolymer,,,Methyl_methacrylate:Butyl_acrylate,"Methyl_methacrylate:30%, Butyl_acrylate:70%",,,,
Systematic_Generation,,,MMA-BA_30_70_Mn500k,,,,,,,,,,,COPOLY_007156,500000,,Copolymer,,,Methyl_methacrylate:Butyl_acrylate,"Methyl_methacrylate:30%, Butyl_acrylate:70%",,,,
Systematic_Generation,,,MMA-BA_40_60_Mn50k,,,,,,,,,,,COPOLY_007157,50000,,Copolymer,,,Methyl_methacrylate:Butyl_acrylate,"Methyl_methacrylate:40%, Butyl_acrylate:60%",,,,
Systematic_Generation,,,MMA-BA_40_60_Mn100k,,,,,,,,,,,COPOLY_007158,100000,,Copolymer,,,Methyl_methacrylate:Butyl_acrylate,"Methyl_methacrylate:40%, Butyl_acrylate:60%",,,,
Systematic_Generation,,,MMA-BA_40_60_Mn200k,,,,,,,,,,,COPOLY_007159,200000,,Copolymer,,,Methyl_methacrylate:Butyl_acrylate,"Methyl_methacrylate:40%, Butyl_acrylate:60%",,,,
Systematic_Generation,,,MMA-BA_40_60_Mn500k,,,,,,,,,,,COPOLY_007160,500000,,Copolymer,,,Methyl_methacrylate:Butyl_acrylate,"Methyl_methacrylate:40%, Butyl_acrylate:60%",,,,
Systematic_Generation,,,MMA-BA_50_50_Mn50k,,,,,,,,,,,COPOLY_007161,50000,,Copolymer,,,Methyl_methacrylate:Butyl_acrylate,"Methyl_methacrylate:50%, Butyl_acrylate:50%",,,,
Systematic_Generation,,,MMA-BA_50_50_Mn100k,,,,,,,,,,,COPOLY_007162,100000,,Copolymer,,,Methyl_methacrylate:Butyl_acrylate,"Methyl_methacrylate:50%, Butyl_acrylate:50%",,,,
Systematic_Generation,,,MMA-BA_50_50_Mn200k,,,,,,,,,,,COPOLY_007163,200000,,Copolymer,,,Methyl_methacrylate:Butyl_acrylate,"Methyl_methacrylate:50%, Butyl_acrylate:50%",,,,
Systematic_Generation,,,MMA-BA_50_50_Mn500k,,,,,,,,,,,COPOLY_007164,500000,,Copolymer,,,Methyl_methacrylate:Butyl_acrylate,"Methyl_methacrylate:50%, Butyl_acrylate:50%",,,,
Systematic_Generation,,,MMA-BA_60_40_Mn50k,,,,,,,,,,,COPOLY_007165,50000,,Copolymer,,,Methyl_methacrylate:Butyl_acrylate,"Methyl_methacrylate:60%, Butyl_acrylate:40%",,,,
Systematic_Generation,,,MMA-BA_60_40_Mn100k,,,,,,,,,,,COPOLY_007166,100000,,Copolymer,,,Methyl_methacrylate:Butyl_acrylate,"Methyl_methacrylate:60%, Butyl_acrylate:40%",,,,
Systematic_Generation,,,MMA-BA_60_40_Mn200k,,,,,,,,,,,COPOLY_007167,200000,,Copolymer,,,Methyl_methacrylate:Butyl_acrylate,"Methyl_methacrylate:60%, Butyl_acrylate:40%",,,,
Systematic_Generation,,,MMA-BA_60_40_Mn500k,,,,,,,,,,,COPOLY_007168,500000,,Copolymer,,,Methyl_methacrylate:Butyl_acrylate,"Methyl_methacrylate:60%, Butyl_acrylate:40%",,,,
Systematic_Generation,,,MMA-BA_70_30_Mn50k,,,,,,,,,,,COPOLY_007169,50000,,Copolymer,,,Methyl_methacrylate:Butyl_acrylate,"Methyl_methacrylate:70%, Butyl_acrylate:30%",,,,
Systematic_Generation,,,MMA-BA_70_30_Mn100k,,,,,,,,,,,COPOLY_007170,100000,,Copolymer,,,Methyl_methacrylate:Butyl_acrylate,"Methyl_methacrylate:70%, Butyl_acrylate:30%",,,,
Systematic_Generation,,,MMA-BA_70_30_Mn200k,,,,,,,,,,,COPOLY_007171,200000,,Copolymer,,,Methyl_methacrylate:Butyl_acrylate,"Methyl_methacrylate:70%, Butyl_acrylate:30%",,,,
Systematic_Generation,,,MMA-BA_70_30_Mn500k,,,,,,,,,,,COPOLY_007172,500000,,Copolymer,,,Methyl_methacrylate:Butyl_acrylate,"Methyl_methacrylate:70%, Butyl_acrylate:30%",,,,
Systematic_Generation,,,MMA-BA_80_20_Mn50k,,,,,,,,,,,COPOLY_007173,50000,,Copolymer,,,Methyl_methacrylate:Butyl_acrylate,"Methyl_methacrylate:80%, Butyl_acrylate:20%",,,,
Systematic_Generation,,,MMA-BA_80_20_Mn100k,,,,,,,,,,,COPOLY_007174,100000,,Copolymer,,,Methyl_methacrylate:Butyl_acrylate,"Methyl_methacrylate:80%, Butyl_acrylate:20%",,,,
Systematic_Generation,,,MMA-BA_80_20_Mn200k,,,,,,,,,,,COPOLY_007175,200000,,Copolymer,,,Methyl_methacrylate:Butyl_acrylate,"Methyl_methacrylate:80%, Butyl_acrylate:20%",,,,
Systematic_Generation,,,MMA-BA_80_20_Mn500k,,,,,,,,,,,COPOLY_007176,500000,,Copolymer,,,Methyl_methacrylate:Butyl_acrylate,"Methyl_methacrylate:80%, Butyl_acrylate:20%",,,,
Systematic_Generation,,,MMA-BA_90_10_Mn50k,,,,,,,,,,,COPOLY_007177,50000,,Copolymer,,,Methyl_methacrylate:Butyl_acrylate,"Methyl_methacrylate:90%, Butyl_acrylate:10%",,,,
Systematic_Generation,,,MMA-BA_90_10_Mn100k,,,,,,,,,,,COPOLY_007178,100000,,Copolymer,,,Methyl_methacrylate:Butyl_acrylate,"Methyl_methacrylate:90%, Butyl_acrylate:10%",,,,
Systematic_Generation,,,MMA-BA_90_10_Mn200k,,,,,,,,,,,COPOLY_007179,200000,,Copolymer,,,Methyl_methacrylate:Butyl_acrylate,"Methyl_methacrylate:90%, Butyl_acrylate:10%",,,,
Systematic_Generation,,,MMA-BA_90_10_Mn500k,,,,,,,,,,,COPOLY_007180,500000,,Copolymer,,,Methyl_methacrylate:Butyl_acrylate,"Methyl_methacrylate:90%, Butyl_acrylate:10%",,,,
Systematic_Generation,,,Epoxy_Carbon_fiber_1vol,,,,0.01,,,,Carbon_fiber,Epoxy,,COMP_007181,,,Composite,,,Epoxy+Carbon_fiber,Epoxy matrix with 1% Carbon_fiber,,,,
Systematic_Generation,,,Epoxy_Carbon_fiber_2vol,,,,0.02,,,,Carbon_fiber,Epoxy,,COMP_007182,,,Composite,,,Epoxy+Carbon_fiber,Epoxy matrix with 2% Carbon_fiber,,,,
Systematic_Generation,,,Epoxy_Carbon_fiber_5vol,,,,0.05,,,,Carbon_fiber,Epoxy,,COMP_007183,,,Composite,,,Epoxy+Carbon_fiber,Epoxy matrix with 5% Carbon_fiber,,,,
Systematic_Generation,,,Epoxy_Carbon_fiber_10vol,,,,0.1,,,,Carbon_fiber,Epoxy,,COMP_007184,,,Composite,,,Epoxy+Carbon_fiber,Epoxy matrix with 10% Carbon_fiber,,,,
Systematic_Generation,,,Epoxy_Carbon_fiber_15vol,,,,0.15,,,,Carbon_fiber,Epoxy,,COMP_007185,,,Composite,,,Epoxy+Carbon_fiber,Epoxy matrix with 15% Carbon_fiber,,,,
Systematic_Generation,,,Epoxy_Carbon_fiber_20vol,,,,0.2,,,,Carbon_fiber,Epoxy,,COMP_007186,,,Composite,,,Epoxy+Carbon_fiber,Epoxy matrix with 20% Carbon_fiber,,,,
Systematic_Generation,,,Epoxy_Carbon_fiber_25vol,,,,0.25,,,,Carbon_fiber,Epoxy,,COMP_007187,,,Composite,,,Epoxy+Carbon_fiber,Epoxy matrix with 25% Carbon_fiber,,,,
Systematic_Generation,,,Epoxy_Carbon_fiber_30vol,,,,0.3,,,,Carbon_fiber,Epoxy,,COMP_007188,,,Composite,,,Epoxy+Carbon_fiber,Epoxy matrix with 30% Carbon_fiber,,,,
Systematic_Generation,,,Epoxy_Carbon_fiber_40vol,,,,0.4,,,,Carbon_fiber,Epoxy,,COMP_007189,,,Composite,,,Epoxy+Carbon_fiber,Epoxy matrix with 40% Carbon_fiber,,,,
Systematic_Generation,,,Epoxy_Carbon_fiber_50vol,,,,0.5,,,,Carbon_fiber,Epoxy,,COMP_007190,,,Composite,,,Epoxy+Carbon_fiber,Epoxy matrix with 50% Carbon_fiber,,,,
Systematic_Generation,,,Epoxy_Carbon_fiber_60vol,,,,0.6,,,,Carbon_fiber,Epoxy,,COMP_007191,,,Composite,,,Epoxy+Carbon_fiber,Epoxy matrix with 60% Carbon_fiber,,,,
Systematic_Generation,,,Epoxy_Glass_fiber_1vol,,,,0.01,,,,Glass_fiber,Epoxy,,COMP_007192,,,Composite,,,Epoxy+Glass_fiber,Epoxy matrix with 1% Glass_fiber,,,,
Systematic_Generation,,,Epoxy_Glass_fiber_2vol,,,,0.02,,,,Glass_fiber,Epoxy,,COMP_007193,,,Composite,,,Epoxy+Glass_fiber,Epoxy matrix with 2% Glass_fiber,,,,
Systematic_Generation,,,Epoxy_Glass_fiber_5vol,,,,0.05,,,,Glass_fiber,Epoxy,,COMP_007194,,,Composite,,,Epoxy+Glass_fiber,Epoxy matrix with 5% Glass_fiber,,,,
Systematic_Generation,,,Epoxy_Glass_fiber_10vol,,,,0.1,,,,Glass_fiber,Epoxy,,COMP_007195,,,Composite,,,Epoxy+Glass_fiber,Epoxy matrix with 10% Glass_fiber,,,,
Systematic_Generation,,,Epoxy_Glass_fiber_15vol,,,,0.15,,,,Glass_fiber,Epoxy,,COMP_007196,,,Composite,,,Epoxy+Glass_fiber,Epoxy matrix with 15% Glass_fiber,,,,
Systematic_Generation,,,Epoxy_Glass_fiber_20vol,,,,0.2,,,,Glass_fiber,Epoxy,,COMP_007197,,,Composite,,,Epoxy+Glass_fiber,Epoxy matrix with 20% Glass_fiber,,,,
Systematic_Generation,,,Epoxy_Glass_fiber_25vol,,,,0.25,,,,Glass_fiber,Epoxy,,COMP_007198,,,Composite,,,Epoxy+Glass_fiber,Epoxy matrix with 25% Glass_fiber,,,,
Systematic_Generation,,,Epoxy_Glass_fiber_30vol,,,,0.3,,,,Glass_fiber,Epoxy,,COMP_007199,,,Composite,,,Epoxy+Glass_fiber,Epoxy matrix with 30% Glass_fiber,,,,
Systematic_Generation,,,Epoxy_Glass_fiber_40vol,,,,0.4,,,,Glass_fiber,Epoxy,,COMP_007200,,,Composite,,,Epoxy+Glass_fiber,Epoxy matrix with 40% Glass_fiber,,,,
Systematic_Generation,,,Epoxy_Glass_fiber_50vol,,,,0.5,,,,Glass_fiber,Epoxy,,COMP_007201,,,Composite,,,Epoxy+Glass_fiber,Epoxy matrix with 50% Glass_fiber,,,,
Systematic_Generation,,,Epoxy_Glass_fiber_60vol,,,,0.6,,,,Glass_fiber,Epoxy,,COMP_007202,,,Composite,,,Epoxy+Glass_fiber,Epoxy matrix with 60% Glass_fiber,,,,
Systematic_Generation,,,Epoxy_Aramid_1vol,,,,0.01,,,,Aramid,Epoxy,,COMP_007203,,,Composite,,,Epoxy+Aramid,Epoxy matrix with 1% Aramid,,,,
Systematic_Generation,,,Epoxy_Aramid_2vol,,,,0.02,,,,Aramid,Epoxy,,COMP_007204,,,Composite,,,Epoxy+Aramid,Epoxy matrix with 2% Aramid,,,,
Systematic_Generation,,,Epoxy_Aramid_5vol,,,,0.05,,,,Aramid,Epoxy,,COMP_007205,,,Composite,,,Epoxy+Aramid,Epoxy matrix with 5% Aramid,,,,
Systematic_Generation,,,Epoxy_Aramid_10vol,,,,0.1,,,,Aramid,Epoxy,,COMP_007206,,,Composite,,,Epoxy+Aramid,Epoxy matrix with 10% Aramid,,,,
Systematic_Generation,,,Epoxy_Aramid_15vol,,,,0.15,,,,Aramid,Epoxy,,COMP_007207,,,Composite,,,Epoxy+Aramid,Epoxy matrix with 15% Aramid,,,,
Systematic_Generation,,,Epoxy_Aramid_20vol,,,,0.2,,,,Aramid,Epoxy,,COMP_007208,,,Composite,,,Epoxy+Aramid,Epoxy matrix with 20% Aramid,,,,
Systematic_Generation,,,Epoxy_Aramid_25vol,,,,0.25,,,,Aramid,Epoxy,,COMP_007209,,,Composite,,,Epoxy+Aramid,Epoxy matrix with 25% Aramid,,,,
Systematic_Generation,,,Epoxy_Aramid_30vol,,,,0.3,,,,Aramid,Epoxy,,COMP_007210,,,Composite,,,Epoxy+Aramid,Epoxy matrix with 30% Aramid,,,,
Systematic_Generation,,,Epoxy_Aramid_40vol,,,,0.4,,,,Aramid,Epoxy,,COMP_007211,,,Composite,,,Epoxy+Aramid,Epoxy matrix with 40% Aramid,,,,
Systematic_Generation,,,Epoxy_Aramid_50vol,,,,0.5,,,,Aramid,Epoxy,,COMP_007212,,,Composite,,,Epoxy+Aramid,Epoxy matrix with 50% Aramid,,,,
Systematic_Generation,,,Epoxy_Aramid_60vol,,,,0.6,,,,Aramid,Epoxy,,COMP_007213,,,Composite,,,Epoxy+Aramid,Epoxy matrix with 60% Aramid,,,,
Systematic_Generation,,,Epoxy_Basalt_1vol,,,,0.01,,,,Basalt,Epoxy,,COMP_007214,,,Composite,,,Epoxy+Basalt,Epoxy matrix with 1% Basalt,,,,
Systematic_Generation,,,Epoxy_Basalt_2vol,,,,0.02,,,,Basalt,Epoxy,,COMP_007215,,,Composite,,,Epoxy+Basalt,Epoxy matrix with 2% Basalt,,,,
Systematic_Generation,,,Epoxy_Basalt_5vol,,,,0.05,,,,Basalt,Epoxy,,COMP_007216,,,Composite,,,Epoxy+Basalt,Epoxy matrix with 5% Basalt,,,,
Systematic_Generation,,,Epoxy_Basalt_10vol,,,,0.1,,,,Basalt,Epoxy,,COMP_007217,,,Composite,,,Epoxy+Basalt,Epoxy matrix with 10% Basalt,,,,
Systematic_Generation,,,Epoxy_Basalt_15vol,,,,0.15,,,,Basalt,Epoxy,,COMP_007218,,,Composite,,,Epoxy+Basalt,Epoxy matrix with 15% Basalt,,,,
Systematic_Generation,,,Epoxy_Basalt_20vol,,,,0.2,,,,Basalt,Epoxy,,COMP_007219,,,Composite,,,Epoxy+Basalt,Epoxy matrix with 20% Basalt,,,,
Systematic_Generation,,,Epoxy_Basalt_25vol,,,,0.25,,,,Basalt,Epoxy,,COMP_007220,,,Composite,,,Epoxy+Basalt,Epoxy matrix with 25% Basalt,,,,
Systematic_Generation,,,Epoxy_Basalt_30vol,,,,0.3,,,,Basalt,Epoxy,,COMP_007221,,,Composite,,,Epoxy+Basalt,Epoxy matrix with 30% Basalt,,,,
Systematic_Generation,,,Epoxy_Basalt_40vol,,,,0.4,,,,Basalt,Epoxy,,COMP_007222,,,Composite,,,Epoxy+Basalt,Epoxy matrix with 40% Basalt,,,,
Systematic_Generation,,,Epoxy_Basalt_50vol,,,,0.5,,,,Basalt,Epoxy,,COMP_007223,,,Composite,,,Epoxy+Basalt,Epoxy matrix with 50% Basalt,,,,
Systematic_Generation,,,Epoxy_Basalt_60vol,,,,0.6,,,,Basalt,Epoxy,,COMP_007224,,,Composite,,,Epoxy+Basalt,Epoxy matrix with 60% Basalt,,,,
Systematic_Generation,,,Epoxy_Natural_fiber_1vol,,,,0.01,,,,Natural_fiber,Epoxy,,COMP_007225,,,Composite,,,Epoxy+Natural_fiber,Epoxy matrix with 1% Natural_fiber,,,,
Systematic_Generation,,,Epoxy_Natural_fiber_2vol,,,,0.02,,,,Natural_fiber,Epoxy,,COMP_007226,,,Composite,,,Epoxy+Natural_fiber,Epoxy matrix with 2% Natural_fiber,,,,
Systematic_Generation,,,Epoxy_Natural_fiber_5vol,,,,0.05,,,,Natural_fiber,Epoxy,,COMP_007227,,,Composite,,,Epoxy+Natural_fiber,Epoxy matrix with 5% Natural_fiber,,,,
Systematic_Generation,,,Epoxy_Natural_fiber_10vol,,,,0.1,,,,Natural_fiber,Epoxy,,COMP_007228,,,Composite,,,Epoxy+Natural_fiber,Epoxy matrix with 10% Natural_fiber,,,,
Systematic_Generation,,,Epoxy_Natural_fiber_15vol,,,,0.15,,,,Natural_fiber,Epoxy,,COMP_007229,,,Composite,,,Epoxy+Natural_fiber,Epoxy matrix with 15% Natural_fiber,,,,
Systematic_Generation,,,Epoxy_Natural_fiber_20vol,,,,0.2,,,,Natural_fiber,Epoxy,,COMP_007230,,,Composite,,,Epoxy+Natural_fiber,Epoxy matrix with 20% Natural_fiber,,,,
Systematic_Generation,,,Epoxy_Natural_fiber_25vol,,,,0.25,,,,Natural_fiber,Epoxy,,COMP_007231,,,Composite,,,Epoxy+Natural_fiber,Epoxy matrix with 25% Natural_fiber,,,,
Systematic_Generation,,,Epoxy_Natural_fiber_30vol,,,,0.3,,,,Natural_fiber,Epoxy,,COMP_007232,,,Composite,,,Epoxy+Natural_fiber,Epoxy matrix with 30% Natural_fiber,,,,
Systematic_Generation,,,Epoxy_Natural_fiber_40vol,,,,0.4,,,,Natural_fiber,Epoxy,,COMP_007233,,,Composite,,,Epoxy+Natural_fiber,Epoxy matrix with 40% Natural_fiber,,,,
Systematic_Generation,,,Epoxy_Natural_fiber_50vol,,,,0.5,,,,Natural_fiber,Epoxy,,COMP_007234,,,Composite,,,Epoxy+Natural_fiber,Epoxy matrix with 50% Natural_fiber,,,,
Systematic_Generation,,,Epoxy_Natural_fiber_60vol,,,,0.6,,,,Natural_fiber,Epoxy,,COMP_007235,,,Composite,,,Epoxy+Natural_fiber,Epoxy matrix with 60% Natural_fiber,,,,
Systematic_Generation,,,Epoxy_Graphene_1vol,,,,0.01,,,,Graphene,Epoxy,,COMP_007236,,,Composite,,,Epoxy+Graphene,Epoxy matrix with 1% Graphene,,,,
Systematic_Generation,,,Epoxy_Graphene_2vol,,,,0.02,,,,Graphene,Epoxy,,COMP_007237,,,Composite,,,Epoxy+Graphene,Epoxy matrix with 2% Graphene,,,,
Systematic_Generation,,,Epoxy_Graphene_5vol,,,,0.05,,,,Graphene,Epoxy,,COMP_007238,,,Composite,,,Epoxy+Graphene,Epoxy matrix with 5% Graphene,,,,
Systematic_Generation,,,Epoxy_Graphene_10vol,,,,0.1,,,,Graphene,Epoxy,,COMP_007239,,,Composite,,,Epoxy+Graphene,Epoxy matrix with 10% Graphene,,,,
Systematic_Generation,,,Epoxy_Graphene_15vol,,,,0.15,,,,Graphene,Epoxy,,COMP_007240,,,Composite,,,Epoxy+Graphene,Epoxy matrix with 15% Graphene,,,,
Systematic_Generation,,,Epoxy_Graphene_20vol,,,,0.2,,,,Graphene,Epoxy,,COMP_007241,,,Composite,,,Epoxy+Graphene,Epoxy matrix with 20% Graphene,,,,
Systematic_Generation,,,Epoxy_Graphene_25vol,,,,0.25,,,,Graphene,Epoxy,,COMP_007242,,,Composite,,,Epoxy+Graphene,Epoxy matrix with 25% Graphene,,,,
Systematic_Generation,,,Epoxy_Graphene_30vol,,,,0.3,,,,Graphene,Epoxy,,COMP_007243,,,Composite,,,Epoxy+Graphene,Epoxy matrix with 30% Graphene,,,,
Systematic_Generation,,,Epoxy_Graphene_40vol,,,,0.4,,,,Graphene,Epoxy,,COMP_007244,,,Composite,,,Epoxy+Graphene,Epoxy matrix with 40% Graphene,,,,
Systematic_Generation,,,Epoxy_Graphene_50vol,,,,0.5,,,,Graphene,Epoxy,,COMP_007245,,,Composite,,,Epoxy+Graphene,Epoxy matrix with 50% Graphene,,,,
Systematic_Generation,,,Epoxy_Graphene_60vol,,,,0.6,,,,Graphene,Epoxy,,COMP_007246,,,Composite,,,Epoxy+Graphene,Epoxy matrix with 60% Graphene,,,,