source,n_elements,doping_concentration,name,termination,space_group,doping_level,volume_fraction,weight_percent,lattice_c,temperature,reinforcement,matrix,layers,material_id,molecular_weight,deposition_method,type,lattice_b,pdi,formula,composition,lattice_a,thickness_nm,dopant,substrate
Systematic_Generation,,,W40Nb60,,Pm-3m,,,,,,,,,ALLOY_002683,,,Binary_Alloy,,,W_0.40Nb_0.60,"W:40%, Nb:60%",3.499,,,
Systematic_Generation,,,W50Nb50,,Im-3m,,,,,,,,,ALLOY_002684,,,Binary_Alloy,,,W_0.50Nb_0.50,"W:50%, Nb:50%",3.577,,,
Systematic_Generation,,,W60Nb40,,P63/mmc,,,,,,,,,ALLOY_002685,,,Binary_Alloy,,,W_0.60Nb_0.40,"W:60%, Nb:40%",3.78,,,
Systematic_Generation,,,W70Nb30,,Im-3m,,,,,,,,,ALLOY_002686,,,Binary_Alloy,,,W_0.70Nb_0.30,"W:70%, Nb:30%",2.532,,,
Systematic_Generation,,,W80Nb20,,Im-3m,,,,,,,,,ALLOY_002687,,,Binary_Alloy,,,W_0.80Nb_0.20,"W:80%, Nb:20%",3.548,,,
Systematic_Generation,,,W90Nb10,,P63/mmc,,,,,,,,,ALLOY_002688,,,Binary_Alloy,,,W_0.90Nb_0.10,"W:90%, Nb:10%",2.716,,,
Systematic_Generation,,,V10Nb90,,Pm-3m,,,,,,,,,ALLOY_002689,,,Binary_Alloy,,,V_0.10Nb_0.90,"V:10%, Nb:90%",2.646,,,
Systematic_Generation,,,V20Nb80,,Fm-3m,,,,,,,,,ALLOY_002690,,,Binary_Alloy,,,V_0.20Nb_0.80,"V:20%, Nb:80%",4.361,,,
Systematic_Generation,,,V30Nb70,,P63/mmc,,,,,,,,,ALLOY_002691,,,Binary_Alloy,,,V_0.30Nb_0.70,"V:30%, Nb:70%",3.737,,,
Systematic_Generation,,,V40Nb60,,P63/mmc,,,,,,,,,ALLOY_002692,,,Binary_Alloy,,,V_0.40Nb_0.60,"V:40%, Nb:60%",3.746,,,
Systematic_Generation,,,V50Nb50,,P63/mmc,,,,,,,,,ALLOY_002693,,,Binary_Alloy,,,V_0.50Nb_0.50,"V:50%, Nb:50%",3.735,,,
Systematic_Generation,,,V60Nb40,,P63/mmc,,,,,,,,,ALLOY_002694,,,Binary_Alloy,,,V_0.60Nb_0.40,"V:60%, Nb:40%",3.73,,,
Systematic_Generation,,,V70Nb30,,Pm-3m,,,,,,,,,ALLOY_002695,,,Binary_Alloy,,,V_0.70Nb_0.30,"V:70%, Nb:30%",3.998,,,
Systematic_Generation,,,V80Nb20,,Fm-3m,,,,,,,,,ALLOY_002696,,,Binary_Alloy,,,V_0.80Nb_0.20,"V:80%, Nb:20%",3.744,,,
Systematic_Generation,,,V90Nb10,,Im-3m,,,,,,,,,ALLOY_002697,,,Binary_Alloy,,,V_0.90Nb_0.10,"V:90%, Nb:10%",4.484,,,
Systematic_Generation,,,Al10Cu10Mg80,,Im-3m,,,,,,,,,ALLOY_002698,,,Ternary_Alloy,,,Al_0.10Cu_0.10Mg_0.80,"Al:10%, Cu:10%, Mg:80%",2.837,,,
Systematic_Generation,,,Al10Cu20Mg70,,Im-3m,,,,,,,,,ALLOY_002699,,,Ternary_Alloy,,,Al_0.10Cu_0.20Mg_0.70,"Al:10%, Cu:20%, Mg:70%",3.907,,,
Systematic_Generation,,,Al10Cu30Mg60,,P63/mmc,,,,,,,,,ALLOY_002700,,,Ternary_Alloy,,,Al_0.10Cu_0.30Mg_0.60,"Al:10%, Cu:30%, Mg:60%",3.058,,,
Systematic_Generation,,,Al10Cu40Mg50,,Im-3m,,,,,,,,,ALLOY_002701,,,Ternary_Alloy,,,Al_0.10Cu_0.40Mg_0.50,"Al:10%, Cu:40%, Mg:50%",3.26,,,
Systematic_Generation,,,Al10Cu50Mg40,,Im-3m,,,,,,,,,ALLOY_002702,,,Ternary_Alloy,,,Al_0.10Cu_0.50Mg_0.40,"Al:10%, Cu:50%, Mg:40%",3.212,,,
Systematic_Generation,,,Al10Cu60Mg30,,P63/mmc,,,,,,,,,ALLOY_002703,,,Ternary_Alloy,,,Al_0.10Cu_0.60Mg_0.30,"Al:10%, Cu:60%, Mg:30%",3.137,,,
Systematic_Generation,,,Al10Cu70Mg20,,P63/mmc,,,,,,,,,ALLOY_002704,,,Ternary_Alloy,,,Al_0.10Cu_0.70Mg_0.20,"Al:10%, Cu:70%, Mg:20%",3.189,,,
Systematic_Generation,,,Al20Cu10Mg70,,Im-3m,,,,,,,,,ALLOY_002705,,,Ternary_Alloy,,,Al_0.20Cu_0.10Mg_0.70,"Al:20%, Cu:10%, Mg:70%",3.334,,,
Systematic_Generation,,,Al20Cu20Mg60,,Im-3m,,,,,,,,,ALLOY_002706,,,Ternary_Alloy,,,Al_0.20Cu_0.20Mg_0.60,"Al:20%, Cu:20%, Mg:60%",3.396,,,
Systematic_Generation,,,Al20Cu30Mg50,,Im-3m,,,,,,,,,ALLOY_002707,,,Ternary_Alloy,,,Al_0.20Cu_0.30Mg_0.50,"Al:20%, Cu:30%, Mg:50%",3.389,,,
Systematic_Generation,,,Al20Cu40Mg40,,Fm-3m,,,,,,,,,ALLOY_002708,,,Ternary_Alloy,,,Al_0.20Cu_0.40Mg_0.40,"Al:20%, Cu:40%, Mg:40%",3.441,,,
Systematic_Generation,,,Al20Cu50Mg30,,Fm-3m,,,,,,,,,ALLOY_002709,,,Ternary_Alloy,,,Al_0.20Cu_0.50Mg_0.30,"Al:20%, Cu:50%, Mg:30%",3.106,,,
Systematic_Generation,,,Al20Cu60Mg20,,P63/mmc,,,,,,,,,ALLOY_002710,,,Ternary_Alloy,,,Al_0.20Cu_0.60Mg_0.20,"Al:20%, Cu:60%, Mg:20%",3.077,,,
Systematic_Generation,,,Al30Cu10Mg60,,P63/mmc,,,,,,,,,ALLOY_002711,,,Ternary_Alloy,,,Al_0.30Cu_0.10Mg_0.60,"Al:30%, Cu:10%, Mg:60%",3.565,,,
Systematic_Generation,,,Al30Cu20Mg50,,Fm-3m,,,,,,,,,ALLOY_002712,,,Ternary_Alloy,,,Al_0.30Cu_0.20Mg_0.50,"Al:30%, Cu:20%, Mg:50%",3.084,,,
Systematic_Generation,,,Al30Cu30Mg40,,P63/mmc,,,,,,,,,ALLOY_002713,,,Ternary_Alloy,,,Al_0.30Cu_0.30Mg_0.40,"Al:30%, Cu:30%, Mg:40%",3.751,,,
Systematic_Generation,,,Al30Cu40Mg30,,Im-3m,,,,,,,,,ALLOY_002714,,,Ternary_Alloy,,,Al_0.30Cu_0.40Mg_0.30,"Al:30%, Cu:40%, Mg:30%",3.209,,,
Systematic_Generation,,,Al30Cu50Mg20,,P63/mmc,,,,,,,,,ALLOY_002715,,,Ternary_Alloy,,,Al_0.30Cu_0.50Mg_0.20,"Al:30%, Cu:50%, Mg:20%",3.402,,,
Systematic_Generation,,,Al40Cu10Mg50,,Fm-3m,,,,,,,,,ALLOY_002716,,,Ternary_Alloy,,,Al_0.40Cu_0.10Mg_0.50,"Al:40%, Cu:10%, Mg:50%",2.965,,,
Systematic_Generation,,,Al40Cu20Mg40,,Fm-3m,,,,,,,,,ALLOY_002717,,,Ternary_Alloy,,,Al_0.40Cu_0.20Mg_0.40,"Al:40%, Cu:20%, Mg:40%",3.02,,,
Systematic_Generation,,,Al40Cu30Mg30,,Im-3m,,,,,,,,,ALLOY_002718,,,Ternary_Alloy,,,Al_0.40Cu_0.30Mg_0.30,"Al:40%, Cu:30%, Mg:30%",3.847,,,
Systematic_Generation,,,Al40Cu40Mg20,,P63/mmc,,,,,,,,,ALLOY_002719,,,Ternary_Alloy,,,Al_0.40Cu_0.40Mg_0.20,"Al:40%, Cu:40%, Mg:20%",3.944,,,
Systematic_Generation,,,Al50Cu10Mg40,,Fm-3m,,,,,,,,,ALLOY_002720,,,Ternary_Alloy,,,Al_0.50Cu_0.10Mg_0.40,"Al:50%, Cu:10%, Mg:40%",3.924,,,
Systematic_Generation,,,Al50Cu20Mg30,,P63/mmc,,,,,,,,,ALLOY_002721,,,Ternary_Alloy,,,Al_0.50Cu_0.20Mg_0.30,"Al:50%, Cu:20%, Mg:30%",3.298,,,
Systematic_Generation,,,Al50Cu30Mg20,,Fm-3m,,,,,,,,,ALLOY_002722,,,Ternary_Alloy,,,Al_0.50Cu_0.30Mg_0.20,"Al:50%, Cu:30%, Mg:20%",3.998,,,
Systematic_Generation,,,Al60Cu10Mg30,,Im-3m,,,,,,,,,ALLOY_002723,,,Ternary_Alloy,,,Al_0.60Cu_0.10Mg_0.30,"Al:60%, Cu:10%, Mg:30%",3.88,,,
Systematic_Generation,,,Al60Cu20Mg20,,Im-3m,,,,,,,,,ALLOY_002724,,,Ternary_Alloy,,,Al_0.60Cu_0.20Mg_0.20,"Al:60%, Cu:20%, Mg:20%",3.957,,,
Systematic_Generation,,,Al70Cu10Mg20,,Fm-3m,,,,,,,,,ALLOY_002725,,,Ternary_Alloy,,,Al_0.70Cu_0.10Mg_0.20,"Al:70%, Cu:10%, Mg:20%",2.961,,,
Systematic_Generation,,,Fe10Cr10Ni80,,Im-3m,,,,,,,,,ALLOY_002726,,,Ternary_Alloy,,,Fe_0.10Cr_0.10Ni_0.80,"Fe:10%, Cr:10%, Ni:80%",3.874,,,
Systematic_Generation,,,Fe10Cr20Ni70,,P63/mmc,,,,,,,,,ALLOY_002727,,,Ternary_Alloy,,,Fe_0.10Cr_0.20Ni_0.70,"Fe:10%, Cr:20%, Ni:70%",3.889,,,
Systematic_Generation,,,Fe10Cr30Ni60,,Im-3m,,,,,,,,,ALLOY_002728,,,Ternary_Alloy,,,Fe_0.10Cr_0.30Ni_0.60,"Fe:10%, Cr:30%, Ni:60%",3.73,,,
Systematic_Generation,,,Fe10Cr40Ni50,,Im-3m,,,,,,,,,ALLOY_002729,,,Ternary_Alloy,,,Fe_0.10Cr_0.40Ni_0.50,"Fe:10%, Cr:40%, Ni:50%",3.153,,,
Systematic_Generation,,,Fe10Cr50Ni40,,Fm-3m,,,,,,,,,ALLOY_002730,,,Ternary_Alloy,,,Fe_0.10Cr_0.50Ni_0.40,"Fe:10%, Cr:50%, Ni:40%",4.107,,,
Systematic_Generation,,,Fe10Cr60Ni30,,P63/mmc,,,,,,,,,ALLOY_002731,,,Ternary_Alloy,,,Fe_0.10Cr_0.60Ni_0.30,"Fe:10%, Cr:60%, Ni:30%",3.442,,,
Systematic_Generation,,,Fe10Cr70Ni20,,Im-3m,,,,,,,,,ALLOY_002732,,,Ternary_Alloy,,,Fe_0.10Cr_0.70Ni_0.20,"Fe:10%, Cr:70%, Ni:20%",3.455,,,
Systematic_Generation,,,Fe20Cr10Ni70,,Fm-3m,,,,,,,,,ALLOY_002733,,,Ternary_Alloy,,,Fe_0.20Cr_0.10Ni_0.70,"Fe:20%, Cr:10%, Ni:70%",2.891,,,
Systematic_Generation,,,Fe20Cr20Ni60,,Fm-3m,,,,,,,,,ALLOY_002734,,,Ternary_Alloy,,,Fe_0.20Cr_0.20Ni_0.60,"Fe:20%, Cr:20%, Ni:60%",3.307,,,
Systematic_Generation,,,Fe20Cr30Ni50,,Im-3m,,,,,,,,,ALLOY_002735,,,Ternary_Alloy,,,Fe_0.20Cr_0.30Ni_0.50,"Fe:20%, Cr:30%, Ni:50%",3.664,,,
Systematic_Generation,,,Fe20Cr40Ni40,,P63/mmc,,,,,,,,,ALLOY_002736,,,Ternary_Alloy,,,Fe_0.20Cr_0.40Ni_0.40,"Fe:20%, Cr:40%, Ni:40%",3.071,,,
Systematic_Generation,,,Fe20Cr50Ni30,,Im-3m,,,,,,,,,ALLOY_002737,,,Ternary_Alloy,,,Fe_0.20Cr_0.50Ni_0.30,"Fe:20%, Cr:50%, Ni:30%",3.679,,,
Systematic_Generation,,,Fe20Cr60Ni20,,Im-3m,,,,,,,,,ALLOY_002738,,,Ternary_Alloy,,,Fe_0.20Cr_0.60Ni_0.20,"Fe:20%, Cr:60%, Ni:20%",3.727,,,
Systematic_Generation,,,Fe30Cr10Ni60,,Fm-3m,,,,,,,,,ALLOY_002739,,,Ternary_Alloy,,,Fe_0.30Cr_0.10Ni_0.60,"Fe:30%, Cr:10%, Ni:60%",3.674,,,
Systematic_Generation,,,Fe30Cr20Ni50,,Fm-3m,,,,,,,,,ALLOY_002740,,,Ternary_Alloy,,,Fe_0.30Cr_0.20Ni_0.50,"Fe:30%, Cr:20%, Ni:50%",3.218,,,
Systematic_Generation,,,Fe30Cr30Ni40,,P63/mmc,,,,,,,,,ALLOY_002741,,,Ternary_Alloy,,,Fe_0.30Cr_0.30Ni_0.40,"Fe:30%, Cr:30%, Ni:40%",3.336,,,
Systematic_Generation,,,Fe30Cr40Ni30,,Im-3m,,,,,,,,,ALLOY_002742,,,Ternary_Alloy,,,Fe_0.30Cr_0.40Ni_0.30,"Fe:30%, Cr:40%, Ni:30%",3.76,,,
Systematic_Generation,,,Fe30Cr50Ni20,,Fm-3m,,,,,,,,,ALLOY_002743,,,Ternary_Alloy,,,Fe_0.30Cr_0.50Ni_0.20,"Fe:30%, Cr:50%, Ni:20%",4.036,,,
Systematic_Generation,,,Fe40Cr10Ni50,,P63/mmc,,,,,,,,,ALLOY_002744,,,Ternary_Alloy,,,Fe_0.40Cr_0.10Ni_0.50,"Fe:40%, Cr:10%, Ni:50%",2.945,,,
Systematic_Generation,,,Fe40Cr20Ni40,,P63/mmc,,,,,,,,,ALLOY_002745,,,Ternary_Alloy,,,Fe_0.40Cr_0.20Ni_0.40,"Fe:40%, Cr:20%, Ni:40%",3.797,,,
Systematic_Generation,,,Fe40Cr30Ni30,,Im-3m,,,,,,,,,ALLOY_002746,,,Ternary_Alloy,,,Fe_0.40Cr_0.30Ni_0.30,"Fe:40%, Cr:30%, Ni:30%",4.012,,,
Systematic_Generation,,,Fe40Cr40Ni20,,Im-3m,,,,,,,,,ALLOY_002747,,,Ternary_Alloy,,,Fe_0.40Cr_0.40Ni_0.20,"Fe:40%, Cr:40%, Ni:20%",3.182,,,
Systematic_Generation,,,Fe50Cr10Ni40,,Fm-3m,,,,,,,,,ALLOY_002748,,,Ternary_Alloy,,,Fe_0.50Cr_0.10Ni_0.40,"Fe:50%, Cr:10%, Ni:40%",3.545,,,
Systematic_Generation,,,Fe50Cr20Ni30,,Fm-3m,,,,,,,,,ALLOY_002749,,,Ternary_Alloy,,,Fe_0.50Cr_0.20Ni_0.30,"Fe:50%, Cr:20%, Ni:30%",3.45,,,
Systematic_Generation,,,Fe50Cr30Ni20,,Fm-3m,,,,,,,,,ALLOY_002750,,,Ternary_Alloy,,,Fe_0.50Cr_0.30Ni_0.20,"Fe:50%, Cr:30%, Ni:20%",3.304,,,
Systematic_Generation,,,Fe60Cr10Ni30,,Im-3m,,,,,,,,,ALLOY_002751,,,Ternary_Alloy,,,Fe_0.60Cr_0.10Ni_0.30,"Fe:60%, Cr:10%, Ni:30%",3.483,,,
Systematic_Generation,,,Fe60Cr20Ni20,,P63/mmc,,,,,,,,,ALLOY_002752,,,Ternary_Alloy,,,Fe_0.60Cr_0.20Ni_0.20,"Fe:60%, Cr:20%, Ni:20%",4.081,,,
Systematic_Generation,,,Fe70Cr10Ni20,,P63/mmc,,,,,,,,,ALLOY_002753,,,Ternary_Alloy,,,Fe_0.70Cr_0.10Ni_0.20,"Fe:70%, Cr:10%, Ni:20%",3.509,,,
Systematic_Generation,,,Ti10Al10V80,,P63/mmc,,,,,,,,,ALLOY_002754,,,Ternary_Alloy,,,Ti_0.10Al_0.10V_0.80,"Ti:10%, Al:10%, V:80%",3.666,,,
Systematic_Generation,,,Ti10Al20V70,,Fm-3m,,,,,,,,,ALLOY_002755,,,Ternary_Alloy,,,Ti_0.10Al_0.20V_0.70,"Ti:10%, Al:20%, V:70%",3.911,,,
Systematic_Generation,,,Ti10Al30V60,,Fm-3m,,,,,,,,,ALLOY_002756,,,Ternary_Alloy,,,Ti_0.10Al_0.30V_0.60,"Ti:10%, Al:30%, V:60%",3.287,,,
Systematic_Generation,,,Ti10Al40V50,,P63/mmc,,,,,,,,,ALLOY_002757,,,Ternary_Alloy,,,Ti_0.10Al_0.40V_0.50,"Ti:10%, Al:40%, V:50%",4.004,,,
Systematic_Generation,,,Ti10Al50V40,,P63/mmc,,,,,,,,,ALLOY_002758,,,Ternary_Alloy,,,Ti_0.10Al_0.50V_0.40,"Ti:10%, Al:50%, V:40%",3.399,,,
Systematic_Generation,,,Ti10Al60V30,,Im-3m,,,,,,,,,ALLOY_002759,,,Ternary_Alloy,,,Ti_0.10Al_0.60V_0.30,"Ti:10%, Al:60%, V:30%",4.198,,,
Systematic_Generation,,,Ti10Al70V20,,Im-3m,,,,,,,,,ALLOY_002760,,,Ternary_Alloy,,,Ti_0.10Al_0.70V_0.20,"Ti:10%, Al:70%, V:20%",3.043,,,
Systematic_Generation,,,Ti20Al10V70,,Fm-3m,,,,,,,,,ALLOY_002761,,,Ternary_Alloy,,,Ti_0.20Al_0.10V_0.70,"Ti:20%, Al:10%, V:70%",3.156,,,
Systematic_Generation,,,Ti20Al20V60,,Im-3m,,,,,,,,,ALLOY_002762,,,Ternary_Alloy,,,Ti_0.20Al_0.20V_0.60,"Ti:20%, Al:20%, V:60%",3.38,,,
Systematic_Generation,,,Ti20Al30V50,,P63/mmc,,,,,,,,,ALLOY_002763,,,Ternary_Alloy,,,Ti_0.20Al_0.30V_0.50,"Ti:20%, Al:30%, V:50%",2.922,,,
Systematic_Generation,,,Ti20Al40V40,,Im-3m,,,,,,,,,ALLOY_002764,,,Ternary_Alloy,,,Ti_0.20Al_0.40V_0.40,"Ti:20%, Al:40%, V:40%",2.93,,,
Systematic_Generation,,,Ti20Al50V30,,P63/mmc,,,,,,,,,ALLOY_002765,,,Ternary_Alloy,,,Ti_0.20Al_0.50V_0.30,"Ti:20%, Al:50%, V:30%",3.435,,,
Systematic_Generation,,,Ti20Al60V20,,P63/mmc,,,,,,,,,ALLOY_002766,,,Ternary_Alloy,,,Ti_0.20Al_0.60V_0.20,"Ti:20%, Al:60%, V:20%",3.951,,,
Systematic_Generation,,,Ti30Al10V60,,Im-3m,,,,,,,,,ALLOY_002767,,,Ternary_Alloy,,,Ti_0.30Al_0.10V_0.60,"Ti:30%, Al:10%, V:60%",4.038,,,
Systematic_Generation,,,Ti30Al20V50,,Im-3m,,,,,,,,,ALLOY_002768,,,Ternary_Alloy,,,Ti_0.30Al_0.20V_0.50,"Ti:30%, Al:20%, V:50%",3.249,,,
Systematic_Generation,,,Ti30Al30V40,,Fm-3m,,,,,,,,,ALLOY_002769,,,Ternary_Alloy,,,Ti_0.30Al_0.30V_0.40,"Ti:30%, Al:30%, V:40%",3.898,,,
Systematic_Generation,,,Ti30Al40V30,,P63/mmc,,,,,,,,,ALLOY_002770,,,Ternary_Alloy,,,Ti_0.30Al_0.40V_0.30,"Ti:30%, Al:40%, V:30%",3.221,,,
Systematic_Generation,,,Ti30Al50V20,,Im-3m,,,,,,,,,ALLOY_002771,,,Ternary_Alloy,,,Ti_0.30Al_0.50V_0.20,"Ti:30%, Al:50%, V:20%",4.08,,,
Systematic_Generation,,,Ti40Al10V50,,Im-3m,,,,,,,,,ALLOY_002772,,,Ternary_Alloy,,,Ti_0.40Al_0.10V_0.50,"Ti:40%, Al:10%, V:50%",3.702,,,
Systematic_Generation,,,Ti40Al20V40,,Fm-3m,,,,,,,,,ALLOY_002773,,,Ternary_Alloy,,,Ti_0.40Al_0.20V_0.40,"Ti:40%, Al:20%, V:40%",2.895,,,
Systematic_Generation,,,Ti40Al30V30,,P63/mmc,,,,,,,,,ALLOY_002774,,,Ternary_Alloy,,,Ti_0.40Al_0.30V_0.30,"Ti:40%, Al:30%, V:30%",2.919,,,
Systematic_Generation,,,Ti40Al40V20,,Im-3m,,,,,,,,,ALLOY_002775,,,Ternary_Alloy,,,Ti_0.40Al_0.40V_0.20,"Ti:40%, Al:40%, V:20%",3.384,,,
Systematic_Generation,,,Ti50Al10V40,,P63/mmc,,,,,,,,,ALLOY_002776,,,Ternary_Alloy,,,Ti_0.50Al_0.10V_0.40,"Ti:50%, Al:10%, V:40%",3.014,,,
Systematic_Generation,,,Ti50Al20V30,,P63/mmc,,,,,,,,,ALLOY_002777,,,Ternary_Alloy,,,Ti_0.50Al_0.20V_0.30,"Ti:50%, Al:20%, V:30%",3.813,,,
Systematic_Generation,,,Ti50Al30V20,,Im-3m,,,,,,,,,ALLOY_002778,,,Ternary_Alloy,,,Ti_0.50Al_0.30V_0.20,"Ti:50%, Al:30%, V:20%",3.537,,,
Systematic_Generation,,,Ti60Al10V30,,P63/mmc,,,,,,,,,ALLOY_002779,,,Ternary_Alloy,,,Ti_0.60Al_0.10V_0.30,"Ti:60%, Al:10%, V:30%",3.055,,,
Systematic_Generation,,,Ti60Al20V20,,Fm-3m,,,,,,,,,ALLOY_002780,,,Ternary_Alloy,,,Ti_0.60Al_0.20V_0.20,"Ti:60%, Al:20%, V:20%",3.743,,,
Systematic_Generation,,,Ti70Al10V20,,Fm-3m,,,,,,,,,ALLOY_002781,,,Ternary_Alloy,,,Ti_0.70Al_0.10V_0.20,"Ti:70%, Al:10%, V:20%",3.071,,,
Systematic_Generation,,,Co10Cr10Mo80,,P63/mmc,,,,,,,,,ALLOY_002782,,,Ternary_Alloy,,,Co_0.10Cr_0.10Mo_0.80,"Co:10%, Cr:10%, Mo:80%",2.956,,,
Systematic_Generation,,,Co10Cr20Mo70,,Im-3m,,,,,,,,,ALLOY_002783,,,Ternary_Alloy,,,Co_0.10Cr_0.20Mo_0.70,"Co:10%, Cr:20%, Mo:70%",3.616,,,
Systematic_Generation,,,Co10Cr30Mo60,,Im-3m,,,,,,,,,ALLOY_002784,,,Ternary_Alloy,,,Co_0.10Cr_0.30Mo_0.60,"Co:10%, Cr:30%, Mo:60%",2.868,,,
Systematic_Generation,,,Co10Cr40Mo50,,Im-3m,,,,,,,,,ALLOY_002785,,,Ternary_Alloy,,,Co_0.10Cr_0.40Mo_0.50,"Co:10%, Cr:40%, Mo:50%",4.198,,,
Systematic_Generation,,,Co10Cr50Mo40,,P63/mmc,,,,,,,,,ALLOY_002786,,,Ternary_Alloy,,,Co_0.10Cr_0.50Mo_0.40,"Co:10%, Cr:50%, Mo:40%",3.507,,,
Systematic_Generation,,,Co10Cr60Mo30,,Fm-3m,,,,,,,,,ALLOY_002787,,,Ternary_Alloy,,,Co_0.10Cr_0.60Mo_0.30,"Co:10%, Cr:60%, Mo:30%",4.142,,,
Systematic_Generation,,,Co10Cr70Mo20,,Fm-3m,,,,,,,,,ALLOY_002788,,,Ternary_Alloy,,,Co_0.10Cr_0.70Mo_0.20,"Co:10%, Cr:70%, Mo:20%",3.042,,,
Systematic_Generation,,,Co20Cr10Mo70,,P63/mmc,,,,,,,,,ALLOY_002789,,,Ternary_Alloy,,,Co_0.20Cr_0.10Mo_0.70,"Co:20%, Cr:10%, Mo:70%",3.039,,,
Systematic_Generation,,,Co20Cr20Mo60,,Im-3m,,,,,,,,,ALLOY_002790,,,Ternary_Alloy,,,Co_0.20Cr_0.20Mo_0.60,"Co:20%, Cr:20%, Mo:60%",3.276,,,
Systematic_Generation,,,Co20Cr30Mo50,,Im-3m,,,,,,,,,ALLOY_002791,,,Ternary_Alloy,,,Co_0.20Cr_0.30Mo_0.50,"Co:20%, Cr:30%, Mo:50%",3.273,,,
Systematic_Generation,,,Co20Cr40Mo40,,Fm-3m,,,,,,,,,ALLOY_002792,,,Ternary_Alloy,,,Co_0.20Cr_0.40Mo_0.40,"Co:20%, Cr:40%, Mo:40%",3.5,,,
Systematic_Generation,,,Co20Cr50Mo30,,Im-3m,,,,,,,,,ALLOY_002793,,,Ternary_Alloy,,,Co_0.20Cr_0.50Mo_0.30,"Co:20%, Cr:50%, Mo:30%",3.972,,,
Systematic_Generation,,,Co20Cr60Mo20,,Fm-3m,,,,,,,,,ALLOY_002794,,,Ternary_Alloy,,,Co_0.20Cr_0.60Mo_0.20,"Co:20%, Cr:60%, Mo:20%",3.108,,,
Systematic_Generation,,,Co30Cr10Mo60,,Fm-3m,,,,,,,,,ALLOY_002795,,,Ternary_Alloy,,,Co_0.30Cr_0.10Mo_0.60,"Co:30%, Cr:10%, Mo:60%",3.952,,,
Systematic_Generation,,,Co30Cr20Mo50,,P63/mmc,,,,,,,,,ALLOY_002796,,,Ternary_Alloy,,,Co_0.30Cr_0.20Mo_0.50,"Co:30%, Cr:20%, Mo:50%",3.688,,,
Systematic_Generation,,,Co30Cr30Mo40,,P63/mmc,,,,,,,,,ALLOY_002797,,,Ternary_Alloy,,,Co_0.30Cr_0.30Mo_0.40,"Co:30%, Cr:30%, Mo:40%",4.103,,,
Systematic_Generation,,,Co30Cr40Mo30,,Im-3m,,,,,,,,,ALLOY_002798,,,Ternary_Alloy,,,Co_0.30Cr_0.40Mo_0.30,"Co:30%, Cr:40%, Mo:30%",3.319,,,
Systematic_Generation,,,Co30Cr50Mo20,,P63/mmc,,,,,,,,,ALLOY_002799,,,Ternary_Alloy,,,Co_0.30Cr_0.50Mo_0.20,"Co:30%, Cr:50%, Mo:20%",3.47,,,
Systematic_Generation,,,Co40Cr10Mo50,,P63/mmc,,,,,,,,,ALLOY_002800,,,Ternary_Alloy,,,Co_0.40Cr_0.10Mo_0.50,"Co:40%, Cr:10%, Mo:50%",3.738,,,
Systematic_Generation,,,Co40Cr20Mo40,,P63/mmc,,,,,,,,,ALLOY_002801,,,Ternary_Alloy,,,Co_0.40Cr_0.20Mo_0.40,"Co:40%, Cr:20%, Mo:40%",3.095,,,
Systematic_Generation,,,Co40Cr30Mo30,,Im-3m,,,,,,,,,ALLOY_002802,,,Ternary_Alloy,,,Co_0.40Cr_0.30Mo_0.30,"Co:40%, Cr:30%, Mo:30%",3.654,,,
Systematic_Generation,,,Co40Cr40Mo20,,Fm-3m,,,,,,,,,ALLOY_002803,,,Ternary_Alloy,,,Co_0.40Cr_0.40Mo_0.20,"Co:40%, Cr:40%, Mo:20%",3.715,,,
Systematic_Generation,,,Co50Cr10Mo40,,P63/mmc,,,,,,,,,ALLOY_002804,,,Ternary_Alloy,,,Co_0.50Cr_0.10Mo_0.40,"Co:50%, Cr:10%, Mo:40%",3.812,,,
Systematic_Generation,,,Co50Cr20Mo30,,P63/mmc,,,,,,,,,ALLOY_002805,,,Ternary_Alloy,,,Co_0.50Cr_0.20Mo_0.30,"Co:50%, Cr:20%, Mo:30%",3.784,,,
Systematic_Generation,,,Co50Cr30Mo20,,Fm-3m,,,,,,,,,ALLOY_002806,,,Ternary_Alloy,,,Co_0.50Cr_0.30Mo_0.20,"Co:50%, Cr:30%, Mo:20%",3.396,,,
Systematic_Generation,,,Co60Cr10Mo30,,P63/mmc,,,,,,,,,ALLOY_002807,,,Ternary_Alloy,,,Co_0.60Cr_0.10Mo_0.30,"Co:60%, Cr:10%, Mo:30%",4.09,,,
Systematic_Generation,,,Co60Cr20Mo20,,Im-3m,,,,,,,,,ALLOY_002808,,,Ternary_Alloy,,,Co_0.60Cr_0.20Mo_0.20,"Co:60%, Cr:20%, Mo:20%",4.046,,,
Systematic_Generation,,,Co70Cr10Mo20,,Fm-3m,,,,,,,,,ALLOY_002809,,,Ternary_Alloy,,,Co_0.70Cr_0.10Mo_0.20,"Co:70%, Cr:10%, Mo:20%",3.945,,,
Systematic_Generation,,,Ni10Fe10Mo80,,P63/mmc,,,,,,,,,ALLOY_002810,,,Ternary_Alloy,,,Ni_0.10Fe_0.10Mo_0.80,"Ni:10%, Fe:10%, Mo:80%",2.965,,,
Systematic_Generation,,,Ni10Fe20Mo70,,P63/mmc,,,,,,,,,ALLOY_002811,,,Ternary_Alloy,,,Ni_0.10Fe_0.20Mo_0.70,"Ni:10%, Fe:20%, Mo:70%",3.923,,,
Systematic_Generation,,,Ni10Fe30Mo60,,Im-3m,,,,,,,,,ALLOY_002812,,,Ternary_Alloy,,,Ni_0.10Fe_0.30Mo_0.60,"Ni:10%, Fe:30%, Mo:60%",3.159,,,
Systematic_Generation,,,Ni10Fe40Mo50,,Fm-3m,,,,,,,,,ALLOY_002813,,,Ternary_Alloy,,,Ni_0.10Fe_0.40Mo_0.50,"Ni:10%, Fe:40%, Mo:50%",3.964,,,
Systematic_Generation,,,Ni10Fe50Mo40,,Fm-3m,,,,,,,,,ALLOY_002814,,,Ternary_Alloy,,,Ni_0.10Fe_0.50Mo_0.40,"Ni:10%, Fe:50%, Mo:40%",3.26,,,
Systematic_Generation,,,Ni10Fe60Mo30,,Im-3m,,,,,,,,,ALLOY_002815,,,Ternary_Alloy,,,Ni_0.10Fe_0.60Mo_0.30,"Ni:10%, Fe:60%, Mo:30%",2.943,,,
Systematic_Generation,,,Ni10Fe70Mo20,,Im-3m,,,,,,,,,ALLOY_002816,,,Ternary_Alloy,,,Ni_0.10Fe_0.70Mo_0.20,"Ni:10%, Fe:70%, Mo:20%",3.903,,,
Systematic_Generation,,,Ni20Fe10Mo70,,Fm-3m,,,,,,,,,ALLOY_002817,,,Ternary_Alloy,,,Ni_0.20Fe_0.10Mo_0.70,"Ni:20%, Fe:10%, Mo:70%",3.597,,,
Systematic_Generation,,,Ni20Fe20Mo60,,Im-3m,,,,,,,,,ALLOY_002818,,,Ternary_Alloy,,,Ni_0.20Fe_0.20Mo_0.60,"Ni:20%, Fe:20%, Mo:60%",3.093,,,
Systematic_Generation,,,Ni20Fe30Mo50,,Im-3m,,,,,,,,,ALLOY_002819,,,Ternary_Alloy,,,Ni_0.20Fe_0.30Mo_0.50,"Ni:20%, Fe:30%, Mo:50%",4.044,,,
Systematic_Generation,,,Ni20Fe40Mo40,,Fm-3m,,,,,,,,,ALLOY_002820,,,Ternary_Alloy,,,Ni_0.20Fe_0.40Mo_0.40,"Ni:20%, Fe:40%, Mo:40%",3.905,,,
Systematic_Generation,,,Ni20Fe50Mo30,,P63/mmc,,,,,,,,,ALLOY_002821,,,Ternary_Alloy,,,Ni_0.20Fe_0.50Mo_0.30,"Ni:20%, Fe:50%, Mo:30%",2.871,,,
Systematic_Generation,,,Ni20Fe60Mo20,,P63/mmc,,,,,,,,,ALLOY_002822,,,Ternary_Alloy,,,Ni_0.20Fe_0.60Mo_0.20,"Ni:20%, Fe:60%, Mo:20%",3.635,,,
Systematic_Generation,,,Ni30Fe10Mo60,,Fm-3m,,,,,,,,,ALLOY_002823,,,Ternary_Alloy,,,Ni_0.30Fe_0.10Mo_0.60,"Ni:30%, Fe:10%, Mo:60%",3.537,,,
Systematic_Generation,,,Ni30Fe20Mo50,,Im-3m,,,,,,,,,ALLOY_002824,,,Ternary_Alloy,,,Ni_0.30Fe_0.20Mo_0.50,"Ni:30%, Fe:20%, Mo:50%",3.891,,,
Systematic_Generation,,,Ni30Fe30Mo40,,Im-3m,,,,,,,,,ALLOY_002825,,,Ternary_Alloy,,,Ni_0.30Fe_0.30Mo_0.40,"Ni:30%, Fe:30%, Mo:40%",3.496,,,
Systematic_Generation,,,Ni30Fe40Mo30,,Fm-3m,,,,,,,,,ALLOY_002826,,,Ternary_Alloy,,,Ni_0.30Fe_0.40Mo_0.30,"Ni:30%, Fe:40%, Mo:30%",3.431,,,