source,n_elements,doping_concentration,name,termination,space_group,doping_level,volume_fraction,weight_percent,lattice_c,temperature,reinforcement,matrix,layers,material_id,molecular_weight,deposition_method,type,lattice_b,pdi,formula,composition,lattice_a,thickness_nm,dopant,substrate
Systematic_Generation,,1000000000000000.0,AlSb:N_1.0e+15,,Inherited,,,,,,,,,DOPED_004374,,,Doped_Semiconductor,,,AlSb_N,AlSb + N @ 1.0e+15 cm^-3,,,N,
Systematic_Generation,,5000000000000000.0,AlSb:N_5.0e+15,,Inherited,,,,,,,,,DOPED_004375,,,Doped_Semiconductor,,,AlSb_N,AlSb + N @ 5.0e+15 cm^-3,,,N,
Systematic_Generation,,1e+16,AlSb:N_1.0e+16,,Inherited,,,,,,,,,DOPED_004376,,,Doped_Semiconductor,,,AlSb_N,AlSb + N @ 1.0e+16 cm^-3,,,N,
Systematic_Generation,,5e+16,AlSb:N_5.0e+16,,Inherited,,,,,,,,,DOPED_004377,,,Doped_Semiconductor,,,AlSb_N,AlSb + N @ 5.0e+16 cm^-3,,,N,
Systematic_Generation,,1e+17,AlSb:N_1.0e+17,,Inherited,,,,,,,,,DOPED_004378,,,Doped_Semiconductor,,,AlSb_N,AlSb + N @ 1.0e+17 cm^-3,,,N,
Systematic_Generation,,5e+17,AlSb:N_5.0e+17,,Inherited,,,,,,,,,DOPED_004379,,,Doped_Semiconductor,,,AlSb_N,AlSb + N @ 5.0e+17 cm^-3,,,N,
Systematic_Generation,,1e+18,AlSb:N_1.0e+18,,Inherited,,,,,,,,,DOPED_004380,,,Doped_Semiconductor,,,AlSb_N,AlSb + N @ 1.0e+18 cm^-3,,,N,
Systematic_Generation,,5e+18,AlSb:N_5.0e+18,,Inherited,,,,,,,,,DOPED_004381,,,Doped_Semiconductor,,,AlSb_N,AlSb + N @ 5.0e+18 cm^-3,,,N,
Systematic_Generation,,1e+19,AlSb:N_1.0e+19,,Inherited,,,,,,,,,DOPED_004382,,,Doped_Semiconductor,,,AlSb_N,AlSb + N @ 1.0e+19 cm^-3,,,N,
Systematic_Generation,,5e+19,AlSb:N_5.0e+19,,Inherited,,,,,,,,,DOPED_004383,,,Doped_Semiconductor,,,AlSb_N,AlSb + N @ 5.0e+19 cm^-3,,,N,
Systematic_Generation,,1e+20,AlSb:N_1.0e+20,,Inherited,,,,,,,,,DOPED_004384,,,Doped_Semiconductor,,,AlSb_N,AlSb + N @ 1.0e+20 cm^-3,,,N,
Systematic_Generation,,1e+21,AlSb:N_1.0e+21,,Inherited,,,,,,,,,DOPED_004385,,,Doped_Semiconductor,,,AlSb_N,AlSb + N @ 1.0e+21 cm^-3,,,N,
Systematic_Generation,,1000000000000000.0,AlSb:Al_1.0e+15,,Inherited,,,,,,,,,DOPED_004386,,,Doped_Semiconductor,,,AlSb_Al,AlSb + Al @ 1.0e+15 cm^-3,,,Al,
Systematic_Generation,,5000000000000000.0,AlSb:Al_5.0e+15,,Inherited,,,,,,,,,DOPED_004387,,,Doped_Semiconductor,,,AlSb_Al,AlSb + Al @ 5.0e+15 cm^-3,,,Al,
Systematic_Generation,,1e+16,AlSb:Al_1.0e+16,,Inherited,,,,,,,,,DOPED_004388,,,Doped_Semiconductor,,,AlSb_Al,AlSb + Al @ 1.0e+16 cm^-3,,,Al,
Systematic_Generation,,5e+16,AlSb:Al_5.0e+16,,Inherited,,,,,,,,,DOPED_004389,,,Doped_Semiconductor,,,AlSb_Al,AlSb + Al @ 5.0e+16 cm^-3,,,Al,
Systematic_Generation,,1e+17,AlSb:Al_1.0e+17,,Inherited,,,,,,,,,DOPED_004390,,,Doped_Semiconductor,,,AlSb_Al,AlSb + Al @ 1.0e+17 cm^-3,,,Al,
Systematic_Generation,,5e+17,AlSb:Al_5.0e+17,,Inherited,,,,,,,,,DOPED_004391,,,Doped_Semiconductor,,,AlSb_Al,AlSb + Al @ 5.0e+17 cm^-3,,,Al,
Systematic_Generation,,1e+18,AlSb:Al_1.0e+18,,Inherited,,,,,,,,,DOPED_004392,,,Doped_Semiconductor,,,AlSb_Al,AlSb + Al @ 1.0e+18 cm^-3,,,Al,
Systematic_Generation,,5e+18,AlSb:Al_5.0e+18,,Inherited,,,,,,,,,DOPED_004393,,,Doped_Semiconductor,,,AlSb_Al,AlSb + Al @ 5.0e+18 cm^-3,,,Al,
Systematic_Generation,,1e+19,AlSb:Al_1.0e+19,,Inherited,,,,,,,,,DOPED_004394,,,Doped_Semiconductor,,,AlSb_Al,AlSb + Al @ 1.0e+19 cm^-3,,,Al,
Systematic_Generation,,5e+19,AlSb:Al_5.0e+19,,Inherited,,,,,,,,,DOPED_004395,,,Doped_Semiconductor,,,AlSb_Al,AlSb + Al @ 5.0e+19 cm^-3,,,Al,
Systematic_Generation,,1e+20,AlSb:Al_1.0e+20,,Inherited,,,,,,,,,DOPED_004396,,,Doped_Semiconductor,,,AlSb_Al,AlSb + Al @ 1.0e+20 cm^-3,,,Al,
Systematic_Generation,,1e+21,AlSb:Al_1.0e+21,,Inherited,,,,,,,,,DOPED_004397,,,Doped_Semiconductor,,,AlSb_Al,AlSb + Al @ 1.0e+21 cm^-3,,,Al,
Systematic_Generation,,1000000000000000.0,AlSb:Ga_1.0e+15,,Inherited,,,,,,,,,DOPED_004398,,,Doped_Semiconductor,,,AlSb_Ga,AlSb + Ga @ 1.0e+15 cm^-3,,,Ga,
Systematic_Generation,,5000000000000000.0,AlSb:Ga_5.0e+15,,Inherited,,,,,,,,,DOPED_004399,,,Doped_Semiconductor,,,AlSb_Ga,AlSb + Ga @ 5.0e+15 cm^-3,,,Ga,
Systematic_Generation,,1e+16,AlSb:Ga_1.0e+16,,Inherited,,,,,,,,,DOPED_004400,,,Doped_Semiconductor,,,AlSb_Ga,AlSb + Ga @ 1.0e+16 cm^-3,,,Ga,
Systematic_Generation,,5e+16,AlSb:Ga_5.0e+16,,Inherited,,,,,,,,,DOPED_004401,,,Doped_Semiconductor,,,AlSb_Ga,AlSb + Ga @ 5.0e+16 cm^-3,,,Ga,
Systematic_Generation,,1e+17,AlSb:Ga_1.0e+17,,Inherited,,,,,,,,,DOPED_004402,,,Doped_Semiconductor,,,AlSb_Ga,AlSb + Ga @ 1.0e+17 cm^-3,,,Ga,
Systematic_Generation,,5e+17,AlSb:Ga_5.0e+17,,Inherited,,,,,,,,,DOPED_004403,,,Doped_Semiconductor,,,AlSb_Ga,AlSb + Ga @ 5.0e+17 cm^-3,,,Ga,
Systematic_Generation,,1e+18,AlSb:Ga_1.0e+18,,Inherited,,,,,,,,,DOPED_004404,,,Doped_Semiconductor,,,AlSb_Ga,AlSb + Ga @ 1.0e+18 cm^-3,,,Ga,
Systematic_Generation,,5e+18,AlSb:Ga_5.0e+18,,Inherited,,,,,,,,,DOPED_004405,,,Doped_Semiconductor,,,AlSb_Ga,AlSb + Ga @ 5.0e+18 cm^-3,,,Ga,
Systematic_Generation,,1e+19,AlSb:Ga_1.0e+19,,Inherited,,,,,,,,,DOPED_004406,,,Doped_Semiconductor,,,AlSb_Ga,AlSb + Ga @ 1.0e+19 cm^-3,,,Ga,
Systematic_Generation,,5e+19,AlSb:Ga_5.0e+19,,Inherited,,,,,,,,,DOPED_004407,,,Doped_Semiconductor,,,AlSb_Ga,AlSb + Ga @ 5.0e+19 cm^-3,,,Ga,
Systematic_Generation,,1e+20,AlSb:Ga_1.0e+20,,Inherited,,,,,,,,,DOPED_004408,,,Doped_Semiconductor,,,AlSb_Ga,AlSb + Ga @ 1.0e+20 cm^-3,,,Ga,
Systematic_Generation,,1e+21,AlSb:Ga_1.0e+21,,Inherited,,,,,,,,,DOPED_004409,,,Doped_Semiconductor,,,AlSb_Ga,AlSb + Ga @ 1.0e+21 cm^-3,,,Ga,
Systematic_Generation,,1000000000000000.0,AlSb:In_1.0e+15,,Inherited,,,,,,,,,DOPED_004410,,,Doped_Semiconductor,,,AlSb_In,AlSb + In @ 1.0e+15 cm^-3,,,In,
Systematic_Generation,,5000000000000000.0,AlSb:In_5.0e+15,,Inherited,,,,,,,,,DOPED_004411,,,Doped_Semiconductor,,,AlSb_In,AlSb + In @ 5.0e+15 cm^-3,,,In,
Systematic_Generation,,1e+16,AlSb:In_1.0e+16,,Inherited,,,,,,,,,DOPED_004412,,,Doped_Semiconductor,,,AlSb_In,AlSb + In @ 1.0e+16 cm^-3,,,In,
Systematic_Generation,,5e+16,AlSb:In_5.0e+16,,Inherited,,,,,,,,,DOPED_004413,,,Doped_Semiconductor,,,AlSb_In,AlSb + In @ 5.0e+16 cm^-3,,,In,
Systematic_Generation,,1e+17,AlSb:In_1.0e+17,,Inherited,,,,,,,,,DOPED_004414,,,Doped_Semiconductor,,,AlSb_In,AlSb + In @ 1.0e+17 cm^-3,,,In,
Systematic_Generation,,5e+17,AlSb:In_5.0e+17,,Inherited,,,,,,,,,DOPED_004415,,,Doped_Semiconductor,,,AlSb_In,AlSb + In @ 5.0e+17 cm^-3,,,In,
Systematic_Generation,,1e+18,AlSb:In_1.0e+18,,Inherited,,,,,,,,,DOPED_004416,,,Doped_Semiconductor,,,AlSb_In,AlSb + In @ 1.0e+18 cm^-3,,,In,
Systematic_Generation,,5e+18,AlSb:In_5.0e+18,,Inherited,,,,,,,,,DOPED_004417,,,Doped_Semiconductor,,,AlSb_In,AlSb + In @ 5.0e+18 cm^-3,,,In,
Systematic_Generation,,1e+19,AlSb:In_1.0e+19,,Inherited,,,,,,,,,DOPED_004418,,,Doped_Semiconductor,,,AlSb_In,AlSb + In @ 1.0e+19 cm^-3,,,In,
Systematic_Generation,,5e+19,AlSb:In_5.0e+19,,Inherited,,,,,,,,,DOPED_004419,,,Doped_Semiconductor,,,AlSb_In,AlSb + In @ 5.0e+19 cm^-3,,,In,
Systematic_Generation,,1e+20,AlSb:In_1.0e+20,,Inherited,,,,,,,,,DOPED_004420,,,Doped_Semiconductor,,,AlSb_In,AlSb + In @ 1.0e+20 cm^-3,,,In,
Systematic_Generation,,1e+21,AlSb:In_1.0e+21,,Inherited,,,,,,,,,DOPED_004421,,,Doped_Semiconductor,,,AlSb_In,AlSb + In @ 1.0e+21 cm^-3,,,In,
Systematic_Generation,,1000000000000000.0,AlSb:Bi_1.0e+15,,Inherited,,,,,,,,,DOPED_004422,,,Doped_Semiconductor,,,AlSb_Bi,AlSb + Bi @ 1.0e+15 cm^-3,,,Bi,
Systematic_Generation,,5000000000000000.0,AlSb:Bi_5.0e+15,,Inherited,,,,,,,,,DOPED_004423,,,Doped_Semiconductor,,,AlSb_Bi,AlSb + Bi @ 5.0e+15 cm^-3,,,Bi,
Systematic_Generation,,1e+16,AlSb:Bi_1.0e+16,,Inherited,,,,,,,,,DOPED_004424,,,Doped_Semiconductor,,,AlSb_Bi,AlSb + Bi @ 1.0e+16 cm^-3,,,Bi,
Systematic_Generation,,5e+16,AlSb:Bi_5.0e+16,,Inherited,,,,,,,,,DOPED_004425,,,Doped_Semiconductor,,,AlSb_Bi,AlSb + Bi @ 5.0e+16 cm^-3,,,Bi,
Systematic_Generation,,1e+17,AlSb:Bi_1.0e+17,,Inherited,,,,,,,,,DOPED_004426,,,Doped_Semiconductor,,,AlSb_Bi,AlSb + Bi @ 1.0e+17 cm^-3,,,Bi,
Systematic_Generation,,5e+17,AlSb:Bi_5.0e+17,,Inherited,,,,,,,,,DOPED_004427,,,Doped_Semiconductor,,,AlSb_Bi,AlSb + Bi @ 5.0e+17 cm^-3,,,Bi,
Systematic_Generation,,1e+18,AlSb:Bi_1.0e+18,,Inherited,,,,,,,,,DOPED_004428,,,Doped_Semiconductor,,,AlSb_Bi,AlSb + Bi @ 1.0e+18 cm^-3,,,Bi,
Systematic_Generation,,5e+18,AlSb:Bi_5.0e+18,,Inherited,,,,,,,,,DOPED_004429,,,Doped_Semiconductor,,,AlSb_Bi,AlSb + Bi @ 5.0e+18 cm^-3,,,Bi,
Systematic_Generation,,1e+19,AlSb:Bi_1.0e+19,,Inherited,,,,,,,,,DOPED_004430,,,Doped_Semiconductor,,,AlSb_Bi,AlSb + Bi @ 1.0e+19 cm^-3,,,Bi,
Systematic_Generation,,5e+19,AlSb:Bi_5.0e+19,,Inherited,,,,,,,,,DOPED_004431,,,Doped_Semiconductor,,,AlSb_Bi,AlSb + Bi @ 5.0e+19 cm^-3,,,Bi,
Systematic_Generation,,1e+20,AlSb:Bi_1.0e+20,,Inherited,,,,,,,,,DOPED_004432,,,Doped_Semiconductor,,,AlSb_Bi,AlSb + Bi @ 1.0e+20 cm^-3,,,Bi,
Systematic_Generation,,1e+21,AlSb:Bi_1.0e+21,,Inherited,,,,,,,,,DOPED_004433,,,Doped_Semiconductor,,,AlSb_Bi,AlSb + Bi @ 1.0e+21 cm^-3,,,Bi,
Systematic_Generation,,1000000000000000.0,AlSb:Li_1.0e+15,,Inherited,,,,,,,,,DOPED_004434,,,Doped_Semiconductor,,,AlSb_Li,AlSb + Li @ 1.0e+15 cm^-3,,,Li,
Systematic_Generation,,5000000000000000.0,AlSb:Li_5.0e+15,,Inherited,,,,,,,,,DOPED_004435,,,Doped_Semiconductor,,,AlSb_Li,AlSb + Li @ 5.0e+15 cm^-3,,,Li,
Systematic_Generation,,1e+16,AlSb:Li_1.0e+16,,Inherited,,,,,,,,,DOPED_004436,,,Doped_Semiconductor,,,AlSb_Li,AlSb + Li @ 1.0e+16 cm^-3,,,Li,
Systematic_Generation,,5e+16,AlSb:Li_5.0e+16,,Inherited,,,,,,,,,DOPED_004437,,,Doped_Semiconductor,,,AlSb_Li,AlSb + Li @ 5.0e+16 cm^-3,,,Li,
Systematic_Generation,,1e+17,AlSb:Li_1.0e+17,,Inherited,,,,,,,,,DOPED_004438,,,Doped_Semiconductor,,,AlSb_Li,AlSb + Li @ 1.0e+17 cm^-3,,,Li,
Systematic_Generation,,5e+17,AlSb:Li_5.0e+17,,Inherited,,,,,,,,,DOPED_004439,,,Doped_Semiconductor,,,AlSb_Li,AlSb + Li @ 5.0e+17 cm^-3,,,Li,
Systematic_Generation,,1e+18,AlSb:Li_1.0e+18,,Inherited,,,,,,,,,DOPED_004440,,,Doped_Semiconductor,,,AlSb_Li,AlSb + Li @ 1.0e+18 cm^-3,,,Li,
Systematic_Generation,,5e+18,AlSb:Li_5.0e+18,,Inherited,,,,,,,,,DOPED_004441,,,Doped_Semiconductor,,,AlSb_Li,AlSb + Li @ 5.0e+18 cm^-3,,,Li,
Systematic_Generation,,1e+19,AlSb:Li_1.0e+19,,Inherited,,,,,,,,,DOPED_004442,,,Doped_Semiconductor,,,AlSb_Li,AlSb + Li @ 1.0e+19 cm^-3,,,Li,
Systematic_Generation,,5e+19,AlSb:Li_5.0e+19,,Inherited,,,,,,,,,DOPED_004443,,,Doped_Semiconductor,,,AlSb_Li,AlSb + Li @ 5.0e+19 cm^-3,,,Li,
Systematic_Generation,,1e+20,AlSb:Li_1.0e+20,,Inherited,,,,,,,,,DOPED_004444,,,Doped_Semiconductor,,,AlSb_Li,AlSb + Li @ 1.0e+20 cm^-3,,,Li,
Systematic_Generation,,1e+21,AlSb:Li_1.0e+21,,Inherited,,,,,,,,,DOPED_004445,,,Doped_Semiconductor,,,AlSb_Li,AlSb + Li @ 1.0e+21 cm^-3,,,Li,
Systematic_Generation,,1000000000000000.0,AlSb:S_1.0e+15,,Inherited,,,,,,,,,DOPED_004446,,,Doped_Semiconductor,,,AlSb_S,AlSb + S @ 1.0e+15 cm^-3,,,S,
Systematic_Generation,,5000000000000000.0,AlSb:S_5.0e+15,,Inherited,,,,,,,,,DOPED_004447,,,Doped_Semiconductor,,,AlSb_S,AlSb + S @ 5.0e+15 cm^-3,,,S,
Systematic_Generation,,1e+16,AlSb:S_1.0e+16,,Inherited,,,,,,,,,DOPED_004448,,,Doped_Semiconductor,,,AlSb_S,AlSb + S @ 1.0e+16 cm^-3,,,S,
Systematic_Generation,,5e+16,AlSb:S_5.0e+16,,Inherited,,,,,,,,,DOPED_004449,,,Doped_Semiconductor,,,AlSb_S,AlSb + S @ 5.0e+16 cm^-3,,,S,
Systematic_Generation,,1e+17,AlSb:S_1.0e+17,,Inherited,,,,,,,,,DOPED_004450,,,Doped_Semiconductor,,,AlSb_S,AlSb + S @ 1.0e+17 cm^-3,,,S,
Systematic_Generation,,5e+17,AlSb:S_5.0e+17,,Inherited,,,,,,,,,DOPED_004451,,,Doped_Semiconductor,,,AlSb_S,AlSb + S @ 5.0e+17 cm^-3,,,S,
Systematic_Generation,,1e+18,AlSb:S_1.0e+18,,Inherited,,,,,,,,,DOPED_004452,,,Doped_Semiconductor,,,AlSb_S,AlSb + S @ 1.0e+18 cm^-3,,,S,
Systematic_Generation,,5e+18,AlSb:S_5.0e+18,,Inherited,,,,,,,,,DOPED_004453,,,Doped_Semiconductor,,,AlSb_S,AlSb + S @ 5.0e+18 cm^-3,,,S,
Systematic_Generation,,1e+19,AlSb:S_1.0e+19,,Inherited,,,,,,,,,DOPED_004454,,,Doped_Semiconductor,,,AlSb_S,AlSb + S @ 1.0e+19 cm^-3,,,S,
Systematic_Generation,,5e+19,AlSb:S_5.0e+19,,Inherited,,,,,,,,,DOPED_004455,,,Doped_Semiconductor,,,AlSb_S,AlSb + S @ 5.0e+19 cm^-3,,,S,
Systematic_Generation,,1e+20,AlSb:S_1.0e+20,,Inherited,,,,,,,,,DOPED_004456,,,Doped_Semiconductor,,,AlSb_S,AlSb + S @ 1.0e+20 cm^-3,,,S,
Systematic_Generation,,1e+21,AlSb:S_1.0e+21,,Inherited,,,,,,,,,DOPED_004457,,,Doped_Semiconductor,,,AlSb_S,AlSb + S @ 1.0e+21 cm^-3,,,S,
Systematic_Generation,,1000000000000000.0,AlSb:Se_1.0e+15,,Inherited,,,,,,,,,DOPED_004458,,,Doped_Semiconductor,,,AlSb_Se,AlSb + Se @ 1.0e+15 cm^-3,,,Se,
Systematic_Generation,,5000000000000000.0,AlSb:Se_5.0e+15,,Inherited,,,,,,,,,DOPED_004459,,,Doped_Semiconductor,,,AlSb_Se,AlSb + Se @ 5.0e+15 cm^-3,,,Se,
Systematic_Generation,,1e+16,AlSb:Se_1.0e+16,,Inherited,,,,,,,,,DOPED_004460,,,Doped_Semiconductor,,,AlSb_Se,AlSb + Se @ 1.0e+16 cm^-3,,,Se,
Systematic_Generation,,5e+16,AlSb:Se_5.0e+16,,Inherited,,,,,,,,,DOPED_004461,,,Doped_Semiconductor,,,AlSb_Se,AlSb + Se @ 5.0e+16 cm^-3,,,Se,
Systematic_Generation,,1e+17,AlSb:Se_1.0e+17,,Inherited,,,,,,,,,DOPED_004462,,,Doped_Semiconductor,,,AlSb_Se,AlSb + Se @ 1.0e+17 cm^-3,,,Se,
Systematic_Generation,,5e+17,AlSb:Se_5.0e+17,,Inherited,,,,,,,,,DOPED_004463,,,Doped_Semiconductor,,,AlSb_Se,AlSb + Se @ 5.0e+17 cm^-3,,,Se,
Systematic_Generation,,1e+18,AlSb:Se_1.0e+18,,Inherited,,,,,,,,,DOPED_004464,,,Doped_Semiconductor,,,AlSb_Se,AlSb + Se @ 1.0e+18 cm^-3,,,Se,
Systematic_Generation,,5e+18,AlSb:Se_5.0e+18,,Inherited,,,,,,,,,DOPED_004465,,,Doped_Semiconductor,,,AlSb_Se,AlSb + Se @ 5.0e+18 cm^-3,,,Se,
Systematic_Generation,,1e+19,AlSb:Se_1.0e+19,,Inherited,,,,,,,,,DOPED_004466,,,Doped_Semiconductor,,,AlSb_Se,AlSb + Se @ 1.0e+19 cm^-3,,,Se,
Systematic_Generation,,5e+19,AlSb:Se_5.0e+19,,Inherited,,,,,,,,,DOPED_004467,,,Doped_Semiconductor,,,AlSb_Se,AlSb + Se @ 5.0e+19 cm^-3,,,Se,
Systematic_Generation,,1e+20,AlSb:Se_1.0e+20,,Inherited,,,,,,,,,DOPED_004468,,,Doped_Semiconductor,,,AlSb_Se,AlSb + Se @ 1.0e+20 cm^-3,,,Se,
Systematic_Generation,,1e+21,AlSb:Se_1.0e+21,,Inherited,,,,,,,,,DOPED_004469,,,Doped_Semiconductor,,,AlSb_Se,AlSb + Se @ 1.0e+21 cm^-3,,,Se,
Systematic_Generation,,1000000000000000.0,AlSb:Te_1.0e+15,,Inherited,,,,,,,,,DOPED_004470,,,Doped_Semiconductor,,,AlSb_Te,AlSb + Te @ 1.0e+15 cm^-3,,,Te,
Systematic_Generation,,5000000000000000.0,AlSb:Te_5.0e+15,,Inherited,,,,,,,,,DOPED_004471,,,Doped_Semiconductor,,,AlSb_Te,AlSb + Te @ 5.0e+15 cm^-3,,,Te,
Systematic_Generation,,1e+16,AlSb:Te_1.0e+16,,Inherited,,,,,,,,,DOPED_004472,,,Doped_Semiconductor,,,AlSb_Te,AlSb + Te @ 1.0e+16 cm^-3,,,Te,
Systematic_Generation,,5e+16,AlSb:Te_5.0e+16,,Inherited,,,,,,,,,DOPED_004473,,,Doped_Semiconductor,,,AlSb_Te,AlSb + Te @ 5.0e+16 cm^-3,,,Te,
Systematic_Generation,,1e+17,AlSb:Te_1.0e+17,,Inherited,,,,,,,,,DOPED_004474,,,Doped_Semiconductor,,,AlSb_Te,AlSb + Te @ 1.0e+17 cm^-3,,,Te,
Systematic_Generation,,5e+17,AlSb:Te_5.0e+17,,Inherited,,,,,,,,,DOPED_004475,,,Doped_Semiconductor,,,AlSb_Te,AlSb + Te @ 5.0e+17 cm^-3,,,Te,
Systematic_Generation,,1e+18,AlSb:Te_1.0e+18,,Inherited,,,,,,,,,DOPED_004476,,,Doped_Semiconductor,,,AlSb_Te,AlSb + Te @ 1.0e+18 cm^-3,,,Te,
Systematic_Generation,,5e+18,AlSb:Te_5.0e+18,,Inherited,,,,,,,,,DOPED_004477,,,Doped_Semiconductor,,,AlSb_Te,AlSb + Te @ 5.0e+18 cm^-3,,,Te,
Systematic_Generation,,1e+19,AlSb:Te_1.0e+19,,Inherited,,,,,,,,,DOPED_004478,,,Doped_Semiconductor,,,AlSb_Te,AlSb + Te @ 1.0e+19 cm^-3,,,Te,
Systematic_Generation,,5e+19,AlSb:Te_5.0e+19,,Inherited,,,,,,,,,DOPED_004479,,,Doped_Semiconductor,,,AlSb_Te,AlSb + Te @ 5.0e+19 cm^-3,,,Te,
Systematic_Generation,,1e+20,AlSb:Te_1.0e+20,,Inherited,,,,,,,,,DOPED_004480,,,Doped_Semiconductor,,,AlSb_Te,AlSb + Te @ 1.0e+20 cm^-3,,,Te,
Systematic_Generation,,1e+21,AlSb:Te_1.0e+21,,Inherited,,,,,,,,,DOPED_004481,,,Doped_Semiconductor,,,AlSb_Te,AlSb + Te @ 1.0e+21 cm^-3,,,Te,
Systematic_Generation,,1000000000000000.0,GaSb:B_1.0e+15,,Inherited,,,,,,,,,DOPED_004482,,,Doped_Semiconductor,,,GaSb_B,GaSb + B @ 1.0e+15 cm^-3,,,B,
Systematic_Generation,,5000000000000000.0,GaSb:B_5.0e+15,,Inherited,,,,,,,,,DOPED_004483,,,Doped_Semiconductor,,,GaSb_B,GaSb + B @ 5.0e+15 cm^-3,,,B,
Systematic_Generation,,1e+16,GaSb:B_1.0e+16,,Inherited,,,,,,,,,DOPED_004484,,,Doped_Semiconductor,,,GaSb_B,GaSb + B @ 1.0e+16 cm^-3,,,B,
Systematic_Generation,,5e+16,GaSb:B_5.0e+16,,Inherited,,,,,,,,,DOPED_004485,,,Doped_Semiconductor,,,GaSb_B,GaSb + B @ 5.0e+16 cm^-3,,,B,
Systematic_Generation,,1e+17,GaSb:B_1.0e+17,,Inherited,,,,,,,,,DOPED_004486,,,Doped_Semiconductor,,,GaSb_B,GaSb + B @ 1.0e+17 cm^-3,,,B,
Systematic_Generation,,5e+17,GaSb:B_5.0e+17,,Inherited,,,,,,,,,DOPED_004487,,,Doped_Semiconductor,,,GaSb_B,GaSb + B @ 5.0e+17 cm^-3,,,B,
Systematic_Generation,,1e+18,GaSb:B_1.0e+18,,Inherited,,,,,,,,,DOPED_004488,,,Doped_Semiconductor,,,GaSb_B,GaSb + B @ 1.0e+18 cm^-3,,,B,
Systematic_Generation,,5e+18,GaSb:B_5.0e+18,,Inherited,,,,,,,,,DOPED_004489,,,Doped_Semiconductor,,,GaSb_B,GaSb + B @ 5.0e+18 cm^-3,,,B,
Systematic_Generation,,1e+19,GaSb:B_1.0e+19,,Inherited,,,,,,,,,DOPED_004490,,,Doped_Semiconductor,,,GaSb_B,GaSb + B @ 1.0e+19 cm^-3,,,B,
Systematic_Generation,,5e+19,GaSb:B_5.0e+19,,Inherited,,,,,,,,,DOPED_004491,,,Doped_Semiconductor,,,GaSb_B,GaSb + B @ 5.0e+19 cm^-3,,,B,
Systematic_Generation,,1e+20,GaSb:B_1.0e+20,,Inherited,,,,,,,,,DOPED_004492,,,Doped_Semiconductor,,,GaSb_B,GaSb + B @ 1.0e+20 cm^-3,,,B,
Systematic_Generation,,1e+21,GaSb:B_1.0e+21,,Inherited,,,,,,,,,DOPED_004493,,,Doped_Semiconductor,,,GaSb_B,GaSb + B @ 1.0e+21 cm^-3,,,B,
Systematic_Generation,,1000000000000000.0,GaSb:P_1.0e+15,,Inherited,,,,,,,,,DOPED_004494,,,Doped_Semiconductor,,,GaSb_P,GaSb + P @ 1.0e+15 cm^-3,,,P,
Systematic_Generation,,5000000000000000.0,GaSb:P_5.0e+15,,Inherited,,,,,,,,,DOPED_004495,,,Doped_Semiconductor,,,GaSb_P,GaSb + P @ 5.0e+15 cm^-3,,,P,
Systematic_Generation,,1e+16,GaSb:P_1.0e+16,,Inherited,,,,,,,,,DOPED_004496,,,Doped_Semiconductor,,,GaSb_P,GaSb + P @ 1.0e+16 cm^-3,,,P,
Systematic_Generation,,5e+16,GaSb:P_5.0e+16,,Inherited,,,,,,,,,DOPED_004497,,,Doped_Semiconductor,,,GaSb_P,GaSb + P @ 5.0e+16 cm^-3,,,P,
Systematic_Generation,,1e+17,GaSb:P_1.0e+17,,Inherited,,,,,,,,,DOPED_004498,,,Doped_Semiconductor,,,GaSb_P,GaSb + P @ 1.0e+17 cm^-3,,,P,
Systematic_Generation,,5e+17,GaSb:P_5.0e+17,,Inherited,,,,,,,,,DOPED_004499,,,Doped_Semiconductor,,,GaSb_P,GaSb + P @ 5.0e+17 cm^-3,,,P,
Systematic_Generation,,1e+18,GaSb:P_1.0e+18,,Inherited,,,,,,,,,DOPED_004500,,,Doped_Semiconductor,,,GaSb_P,GaSb + P @ 1.0e+18 cm^-3,,,P,
Systematic_Generation,,5e+18,GaSb:P_5.0e+18,,Inherited,,,,,,,,,DOPED_004501,,,Doped_Semiconductor,,,GaSb_P,GaSb + P @ 5.0e+18 cm^-3,,,P,
Systematic_Generation,,1e+19,GaSb:P_1.0e+19,,Inherited,,,,,,,,,DOPED_004502,,,Doped_Semiconductor,,,GaSb_P,GaSb + P @ 1.0e+19 cm^-3,,,P,
Systematic_Generation,,5e+19,GaSb:P_5.0e+19,,Inherited,,,,,,,,,DOPED_004503,,,Doped_Semiconductor,,,GaSb_P,GaSb + P @ 5.0e+19 cm^-3,,,P,
Systematic_Generation,,1e+20,GaSb:P_1.0e+20,,Inherited,,,,,,,,,DOPED_004504,,,Doped_Semiconductor,,,GaSb_P,GaSb + P @ 1.0e+20 cm^-3,,,P,
Systematic_Generation,,1e+21,GaSb:P_1.0e+21,,Inherited,,,,,,,,,DOPED_004505,,,Doped_Semiconductor,,,GaSb_P,GaSb + P @ 1.0e+21 cm^-3,,,P,
Systematic_Generation,,1000000000000000.0,GaSb:As_1.0e+15,,Inherited,,,,,,,,,DOPED_004506,,,Doped_Semiconductor,,,GaSb_As,GaSb + As @ 1.0e+15 cm^-3,,,As,
Systematic_Generation,,5000000000000000.0,GaSb:As_5.0e+15,,Inherited,,,,,,,,,DOPED_004507,,,Doped_Semiconductor,,,GaSb_As,GaSb + As @ 5.0e+15 cm^-3,,,As,
Systematic_Generation,,1e+16,GaSb:As_1.0e+16,,Inherited,,,,,,,,,DOPED_004508,,,Doped_Semiconductor,,,GaSb_As,GaSb + As @ 1.0e+16 cm^-3,,,As,
Systematic_Generation,,5e+16,GaSb:As_5.0e+16,,Inherited,,,,,,,,,DOPED_004509,,,Doped_Semiconductor,,,GaSb_As,GaSb + As @ 5.0e+16 cm^-3,,,As,
Systematic_Generation,,1e+17,GaSb:As_1.0e+17,,Inherited,,,,,,,,,DOPED_004510,,,Doped_Semiconductor,,,GaSb_As,GaSb + As @ 1.0e+17 cm^-3,,,As,
Systematic_Generation,,5e+17,GaSb:As_5.0e+17,,Inherited,,,,,,,,,DOPED_004511,,,Doped_Semiconductor,,,GaSb_As,GaSb + As @ 5.0e+17 cm^-3,,,As,