source,n_elements,doping_concentration,name,termination,space_group,doping_level,volume_fraction,weight_percent,lattice_c,temperature,reinforcement,matrix,layers,material_id,molecular_weight,deposition_method,type,lattice_b,pdi,formula,composition,lattice_a,thickness_nm,dopant,substrate
Systematic_Generation,,,PLA_Mn75k_PDI1.1,,,,,,,,,,,POLY_006810,75000,,Homopolymer,,1.1,{[]OC(C)C(=O)[]},PLA,,,,
Systematic_Generation,,,PLA_Mn75k_PDI1.2,,,,,,,,,,,POLY_006811,75000,,Homopolymer,,1.2,{[]OC(C)C(=O)[]},PLA,,,,
Systematic_Generation,,,PLA_Mn75k_PDI1.5,,,,,,,,,,,POLY_006812,75000,,Homopolymer,,1.5,{[]OC(C)C(=O)[]},PLA,,,,
Systematic_Generation,,,PLA_Mn75k_PDI2.0,,,,,,,,,,,POLY_006813,75000,,Homopolymer,,2.0,{[]OC(C)C(=O)[]},PLA,,,,
Systematic_Generation,,,PLA_Mn75k_PDI2.5,,,,,,,,,,,POLY_006814,75000,,Homopolymer,,2.5,{[]OC(C)C(=O)[]},PLA,,,,
Systematic_Generation,,,PLA_Mn100k_PDI1.05,,,,,,,,,,,POLY_006815,100000,,Homopolymer,,1.05,{[]OC(C)C(=O)[]},PLA,,,,
Systematic_Generation,,,PLA_Mn100k_PDI1.1,,,,,,,,,,,POLY_006816,100000,,Homopolymer,,1.1,{[]OC(C)C(=O)[]},PLA,,,,
Systematic_Generation,,,PLA_Mn100k_PDI1.2,,,,,,,,,,,POLY_006817,100000,,Homopolymer,,1.2,{[]OC(C)C(=O)[]},PLA,,,,
Systematic_Generation,,,PLA_Mn100k_PDI1.5,,,,,,,,,,,POLY_006818,100000,,Homopolymer,,1.5,{[]OC(C)C(=O)[]},PLA,,,,
Systematic_Generation,,,PLA_Mn100k_PDI2.0,,,,,,,,,,,POLY_006819,100000,,Homopolymer,,2.0,{[]OC(C)C(=O)[]},PLA,,,,
Systematic_Generation,,,PLA_Mn100k_PDI2.5,,,,,,,,,,,POLY_006820,100000,,Homopolymer,,2.5,{[]OC(C)C(=O)[]},PLA,,,,
Systematic_Generation,,,PLA_Mn150k_PDI1.05,,,,,,,,,,,POLY_006821,150000,,Homopolymer,,1.05,{[]OC(C)C(=O)[]},PLA,,,,
Systematic_Generation,,,PLA_Mn150k_PDI1.1,,,,,,,,,,,POLY_006822,150000,,Homopolymer,,1.1,{[]OC(C)C(=O)[]},PLA,,,,
Systematic_Generation,,,PLA_Mn150k_PDI1.2,,,,,,,,,,,POLY_006823,150000,,Homopolymer,,1.2,{[]OC(C)C(=O)[]},PLA,,,,
Systematic_Generation,,,PLA_Mn150k_PDI1.5,,,,,,,,,,,POLY_006824,150000,,Homopolymer,,1.5,{[]OC(C)C(=O)[]},PLA,,,,
Systematic_Generation,,,PLA_Mn150k_PDI2.0,,,,,,,,,,,POLY_006825,150000,,Homopolymer,,2.0,{[]OC(C)C(=O)[]},PLA,,,,
Systematic_Generation,,,PLA_Mn150k_PDI2.5,,,,,,,,,,,POLY_006826,150000,,Homopolymer,,2.5,{[]OC(C)C(=O)[]},PLA,,,,
Systematic_Generation,,,PLA_Mn200k_PDI1.05,,,,,,,,,,,POLY_006827,200000,,Homopolymer,,1.05,{[]OC(C)C(=O)[]},PLA,,,,
Systematic_Generation,,,PLA_Mn200k_PDI1.1,,,,,,,,,,,POLY_006828,200000,,Homopolymer,,1.1,{[]OC(C)C(=O)[]},PLA,,,,
Systematic_Generation,,,PLA_Mn200k_PDI1.2,,,,,,,,,,,POLY_006829,200000,,Homopolymer,,1.2,{[]OC(C)C(=O)[]},PLA,,,,
Systematic_Generation,,,PLA_Mn200k_PDI1.5,,,,,,,,,,,POLY_006830,200000,,Homopolymer,,1.5,{[]OC(C)C(=O)[]},PLA,,,,
Systematic_Generation,,,PLA_Mn200k_PDI2.0,,,,,,,,,,,POLY_006831,200000,,Homopolymer,,2.0,{[]OC(C)C(=O)[]},PLA,,,,
Systematic_Generation,,,PLA_Mn200k_PDI2.5,,,,,,,,,,,POLY_006832,200000,,Homopolymer,,2.5,{[]OC(C)C(=O)[]},PLA,,,,
Systematic_Generation,,,PLA_Mn300k_PDI1.05,,,,,,,,,,,POLY_006833,300000,,Homopolymer,,1.05,{[]OC(C)C(=O)[]},PLA,,,,
Systematic_Generation,,,PLA_Mn300k_PDI1.1,,,,,,,,,,,POLY_006834,300000,,Homopolymer,,1.1,{[]OC(C)C(=O)[]},PLA,,,,
Systematic_Generation,,,PLA_Mn300k_PDI1.2,,,,,,,,,,,POLY_006835,300000,,Homopolymer,,1.2,{[]OC(C)C(=O)[]},PLA,,,,
Systematic_Generation,,,PLA_Mn300k_PDI1.5,,,,,,,,,,,POLY_006836,300000,,Homopolymer,,1.5,{[]OC(C)C(=O)[]},PLA,,,,
Systematic_Generation,,,PLA_Mn300k_PDI2.0,,,,,,,,,,,POLY_006837,300000,,Homopolymer,,2.0,{[]OC(C)C(=O)[]},PLA,,,,
Systematic_Generation,,,PLA_Mn300k_PDI2.5,,,,,,,,,,,POLY_006838,300000,,Homopolymer,,2.5,{[]OC(C)C(=O)[]},PLA,,,,
Systematic_Generation,,,PLA_Mn500k_PDI1.05,,,,,,,,,,,POLY_006839,500000,,Homopolymer,,1.05,{[]OC(C)C(=O)[]},PLA,,,,
Systematic_Generation,,,PLA_Mn500k_PDI1.1,,,,,,,,,,,POLY_006840,500000,,Homopolymer,,1.1,{[]OC(C)C(=O)[]},PLA,,,,
Systematic_Generation,,,PLA_Mn500k_PDI1.2,,,,,,,,,,,POLY_006841,500000,,Homopolymer,,1.2,{[]OC(C)C(=O)[]},PLA,,,,
Systematic_Generation,,,PLA_Mn500k_PDI1.5,,,,,,,,,,,POLY_006842,500000,,Homopolymer,,1.5,{[]OC(C)C(=O)[]},PLA,,,,
Systematic_Generation,,,PLA_Mn500k_PDI2.0,,,,,,,,,,,POLY_006843,500000,,Homopolymer,,2.0,{[]OC(C)C(=O)[]},PLA,,,,
Systematic_Generation,,,PLA_Mn500k_PDI2.5,,,,,,,,,,,POLY_006844,500000,,Homopolymer,,2.5,{[]OC(C)C(=O)[]},PLA,,,,
Systematic_Generation,,,PLA_Mn750k_PDI1.05,,,,,,,,,,,POLY_006845,750000,,Homopolymer,,1.05,{[]OC(C)C(=O)[]},PLA,,,,
Systematic_Generation,,,PLA_Mn750k_PDI1.1,,,,,,,,,,,POLY_006846,750000,,Homopolymer,,1.1,{[]OC(C)C(=O)[]},PLA,,,,
Systematic_Generation,,,PLA_Mn750k_PDI1.2,,,,,,,,,,,POLY_006847,750000,,Homopolymer,,1.2,{[]OC(C)C(=O)[]},PLA,,,,
Systematic_Generation,,,PLA_Mn750k_PDI1.5,,,,,,,,,,,POLY_006848,750000,,Homopolymer,,1.5,{[]OC(C)C(=O)[]},PLA,,,,
Systematic_Generation,,,PLA_Mn750k_PDI2.0,,,,,,,,,,,POLY_006849,750000,,Homopolymer,,2.0,{[]OC(C)C(=O)[]},PLA,,,,
Systematic_Generation,,,PLA_Mn750k_PDI2.5,,,,,,,,,,,POLY_006850,750000,,Homopolymer,,2.5,{[]OC(C)C(=O)[]},PLA,,,,
Systematic_Generation,,,PLA_Mn1000k_PDI1.05,,,,,,,,,,,POLY_006851,1000000,,Homopolymer,,1.05,{[]OC(C)C(=O)[]},PLA,,,,
Systematic_Generation,,,PLA_Mn1000k_PDI1.1,,,,,,,,,,,POLY_006852,1000000,,Homopolymer,,1.1,{[]OC(C)C(=O)[]},PLA,,,,
Systematic_Generation,,,PLA_Mn1000k_PDI1.2,,,,,,,,,,,POLY_006853,1000000,,Homopolymer,,1.2,{[]OC(C)C(=O)[]},PLA,,,,
Systematic_Generation,,,PLA_Mn1000k_PDI1.5,,,,,,,,,,,POLY_006854,1000000,,Homopolymer,,1.5,{[]OC(C)C(=O)[]},PLA,,,,
Systematic_Generation,,,PLA_Mn1000k_PDI2.0,,,,,,,,,,,POLY_006855,1000000,,Homopolymer,,2.0,{[]OC(C)C(=O)[]},PLA,,,,
Systematic_Generation,,,PLA_Mn1000k_PDI2.5,,,,,,,,,,,POLY_006856,1000000,,Homopolymer,,2.5,{[]OC(C)C(=O)[]},PLA,,,,
Systematic_Generation,,,PVA_Mn5k_PDI1.05,,,,,,,,,,,POLY_006857,5000,,Homopolymer,,1.05,{[]CC(O)[]},PVA,,,,
Systematic_Generation,,,PVA_Mn5k_PDI1.1,,,,,,,,,,,POLY_006858,5000,,Homopolymer,,1.1,{[]CC(O)[]},PVA,,,,
Systematic_Generation,,,PVA_Mn5k_PDI1.2,,,,,,,,,,,POLY_006859,5000,,Homopolymer,,1.2,{[]CC(O)[]},PVA,,,,
Systematic_Generation,,,PVA_Mn5k_PDI1.5,,,,,,,,,,,POLY_006860,5000,,Homopolymer,,1.5,{[]CC(O)[]},PVA,,,,
Systematic_Generation,,,PVA_Mn5k_PDI2.0,,,,,,,,,,,POLY_006861,5000,,Homopolymer,,2.0,{[]CC(O)[]},PVA,,,,
Systematic_Generation,,,PVA_Mn5k_PDI2.5,,,,,,,,,,,POLY_006862,5000,,Homopolymer,,2.5,{[]CC(O)[]},PVA,,,,
Systematic_Generation,,,PVA_Mn10k_PDI1.05,,,,,,,,,,,POLY_006863,10000,,Homopolymer,,1.05,{[]CC(O)[]},PVA,,,,
Systematic_Generation,,,PVA_Mn10k_PDI1.1,,,,,,,,,,,POLY_006864,10000,,Homopolymer,,1.1,{[]CC(O)[]},PVA,,,,
Systematic_Generation,,,PVA_Mn10k_PDI1.2,,,,,,,,,,,POLY_006865,10000,,Homopolymer,,1.2,{[]CC(O)[]},PVA,,,,
Systematic_Generation,,,PVA_Mn10k_PDI1.5,,,,,,,,,,,POLY_006866,10000,,Homopolymer,,1.5,{[]CC(O)[]},PVA,,,,
Systematic_Generation,,,PVA_Mn10k_PDI2.0,,,,,,,,,,,POLY_006867,10000,,Homopolymer,,2.0,{[]CC(O)[]},PVA,,,,
Systematic_Generation,,,PVA_Mn10k_PDI2.5,,,,,,,,,,,POLY_006868,10000,,Homopolymer,,2.5,{[]CC(O)[]},PVA,,,,
Systematic_Generation,,,PVA_Mn25k_PDI1.05,,,,,,,,,,,POLY_006869,25000,,Homopolymer,,1.05,{[]CC(O)[]},PVA,,,,
Systematic_Generation,,,PVA_Mn25k_PDI1.1,,,,,,,,,,,POLY_006870,25000,,Homopolymer,,1.1,{[]CC(O)[]},PVA,,,,
Systematic_Generation,,,PVA_Mn25k_PDI1.2,,,,,,,,,,,POLY_006871,25000,,Homopolymer,,1.2,{[]CC(O)[]},PVA,,,,
Systematic_Generation,,,PVA_Mn25k_PDI1.5,,,,,,,,,,,POLY_006872,25000,,Homopolymer,,1.5,{[]CC(O)[]},PVA,,,,
Systematic_Generation,,,PVA_Mn25k_PDI2.0,,,,,,,,,,,POLY_006873,25000,,Homopolymer,,2.0,{[]CC(O)[]},PVA,,,,
Systematic_Generation,,,PVA_Mn25k_PDI2.5,,,,,,,,,,,POLY_006874,25000,,Homopolymer,,2.5,{[]CC(O)[]},PVA,,,,
Systematic_Generation,,,PVA_Mn50k_PDI1.05,,,,,,,,,,,POLY_006875,50000,,Homopolymer,,1.05,{[]CC(O)[]},PVA,,,,
Systematic_Generation,,,PVA_Mn50k_PDI1.1,,,,,,,,,,,POLY_006876,50000,,Homopolymer,,1.1,{[]CC(O)[]},PVA,,,,
Systematic_Generation,,,PVA_Mn50k_PDI1.2,,,,,,,,,,,POLY_006877,50000,,Homopolymer,,1.2,{[]CC(O)[]},PVA,,,,
Systematic_Generation,,,PVA_Mn50k_PDI1.5,,,,,,,,,,,POLY_006878,50000,,Homopolymer,,1.5,{[]CC(O)[]},PVA,,,,
Systematic_Generation,,,PVA_Mn50k_PDI2.0,,,,,,,,,,,POLY_006879,50000,,Homopolymer,,2.0,{[]CC(O)[]},PVA,,,,
Systematic_Generation,,,PVA_Mn50k_PDI2.5,,,,,,,,,,,POLY_006880,50000,,Homopolymer,,2.5,{[]CC(O)[]},PVA,,,,
Systematic_Generation,,,PVA_Mn75k_PDI1.05,,,,,,,,,,,POLY_006881,75000,,Homopolymer,,1.05,{[]CC(O)[]},PVA,,,,
Systematic_Generation,,,PVA_Mn75k_PDI1.1,,,,,,,,,,,POLY_006882,75000,,Homopolymer,,1.1,{[]CC(O)[]},PVA,,,,
Systematic_Generation,,,PVA_Mn75k_PDI1.2,,,,,,,,,,,POLY_006883,75000,,Homopolymer,,1.2,{[]CC(O)[]},PVA,,,,
Systematic_Generation,,,PVA_Mn75k_PDI1.5,,,,,,,,,,,POLY_006884,75000,,Homopolymer,,1.5,{[]CC(O)[]},PVA,,,,
Systematic_Generation,,,PVA_Mn75k_PDI2.0,,,,,,,,,,,POLY_006885,75000,,Homopolymer,,2.0,{[]CC(O)[]},PVA,,,,
Systematic_Generation,,,PVA_Mn75k_PDI2.5,,,,,,,,,,,POLY_006886,75000,,Homopolymer,,2.5,{[]CC(O)[]},PVA,,,,
Systematic_Generation,,,PVA_Mn100k_PDI1.05,,,,,,,,,,,POLY_006887,100000,,Homopolymer,,1.05,{[]CC(O)[]},PVA,,,,
Systematic_Generation,,,PVA_Mn100k_PDI1.1,,,,,,,,,,,POLY_006888,100000,,Homopolymer,,1.1,{[]CC(O)[]},PVA,,,,
Systematic_Generation,,,PVA_Mn100k_PDI1.2,,,,,,,,,,,POLY_006889,100000,,Homopolymer,,1.2,{[]CC(O)[]},PVA,,,,
Systematic_Generation,,,PVA_Mn100k_PDI1.5,,,,,,,,,,,POLY_006890,100000,,Homopolymer,,1.5,{[]CC(O)[]},PVA,,,,
Systematic_Generation,,,PVA_Mn100k_PDI2.0,,,,,,,,,,,POLY_006891,100000,,Homopolymer,,2.0,{[]CC(O)[]},PVA,,,,
Systematic_Generation,,,PVA_Mn100k_PDI2.5,,,,,,,,,,,POLY_006892,100000,,Homopolymer,,2.5,{[]CC(O)[]},PVA,,,,
Systematic_Generation,,,PVA_Mn150k_PDI1.05,,,,,,,,,,,POLY_006893,150000,,Homopolymer,,1.05,{[]CC(O)[]},PVA,,,,
Systematic_Generation,,,PVA_Mn150k_PDI1.1,,,,,,,,,,,POLY_006894,150000,,Homopolymer,,1.1,{[]CC(O)[]},PVA,,,,
Systematic_Generation,,,PVA_Mn150k_PDI1.2,,,,,,,,,,,POLY_006895,150000,,Homopolymer,,1.2,{[]CC(O)[]},PVA,,,,
Systematic_Generation,,,PVA_Mn150k_PDI1.5,,,,,,,,,,,POLY_006896,150000,,Homopolymer,,1.5,{[]CC(O)[]},PVA,,,,
Systematic_Generation,,,PVA_Mn150k_PDI2.0,,,,,,,,,,,POLY_006897,150000,,Homopolymer,,2.0,{[]CC(O)[]},PVA,,,,
Systematic_Generation,,,PVA_Mn150k_PDI2.5,,,,,,,,,,,POLY_006898,150000,,Homopolymer,,2.5,{[]CC(O)[]},PVA,,,,
Systematic_Generation,,,PVA_Mn200k_PDI1.05,,,,,,,,,,,POLY_006899,200000,,Homopolymer,,1.05,{[]CC(O)[]},PVA,,,,
Systematic_Generation,,,PVA_Mn200k_PDI1.1,,,,,,,,,,,POLY_006900,200000,,Homopolymer,,1.1,{[]CC(O)[]},PVA,,,,
Systematic_Generation,,,PVA_Mn200k_PDI1.2,,,,,,,,,,,POLY_006901,200000,,Homopolymer,,1.2,{[]CC(O)[]},PVA,,,,
Systematic_Generation,,,PVA_Mn200k_PDI1.5,,,,,,,,,,,POLY_006902,200000,,Homopolymer,,1.5,{[]CC(O)[]},PVA,,,,
Systematic_Generation,,,PVA_Mn200k_PDI2.0,,,,,,,,,,,POLY_006903,200000,,Homopolymer,,2.0,{[]CC(O)[]},PVA,,,,
Systematic_Generation,,,PVA_Mn200k_PDI2.5,,,,,,,,,,,POLY_006904,200000,,Homopolymer,,2.5,{[]CC(O)[]},PVA,,,,
Systematic_Generation,,,PVA_Mn300k_PDI1.05,,,,,,,,,,,POLY_006905,300000,,Homopolymer,,1.05,{[]CC(O)[]},PVA,,,,
Systematic_Generation,,,PVA_Mn300k_PDI1.1,,,,,,,,,,,POLY_006906,300000,,Homopolymer,,1.1,{[]CC(O)[]},PVA,,,,
Systematic_Generation,,,PVA_Mn300k_PDI1.2,,,,,,,,,,,POLY_006907,300000,,Homopolymer,,1.2,{[]CC(O)[]},PVA,,,,
Systematic_Generation,,,PVA_Mn300k_PDI1.5,,,,,,,,,,,POLY_006908,300000,,Homopolymer,,1.5,{[]CC(O)[]},PVA,,,,
Systematic_Generation,,,PVA_Mn300k_PDI2.0,,,,,,,,,,,POLY_006909,300000,,Homopolymer,,2.0,{[]CC(O)[]},PVA,,,,
Systematic_Generation,,,PVA_Mn300k_PDI2.5,,,,,,,,,,,POLY_006910,300000,,Homopolymer,,2.5,{[]CC(O)[]},PVA,,,,
Systematic_Generation,,,PVA_Mn500k_PDI1.05,,,,,,,,,,,POLY_006911,500000,,Homopolymer,,1.05,{[]CC(O)[]},PVA,,,,
Systematic_Generation,,,PVA_Mn500k_PDI1.1,,,,,,,,,,,POLY_006912,500000,,Homopolymer,,1.1,{[]CC(O)[]},PVA,,,,
Systematic_Generation,,,PVA_Mn500k_PDI1.2,,,,,,,,,,,POLY_006913,500000,,Homopolymer,,1.2,{[]CC(O)[]},PVA,,,,
Systematic_Generation,,,PVA_Mn500k_PDI1.5,,,,,,,,,,,POLY_006914,500000,,Homopolymer,,1.5,{[]CC(O)[]},PVA,,,,
Systematic_Generation,,,PVA_Mn500k_PDI2.0,,,,,,,,,,,POLY_006915,500000,,Homopolymer,,2.0,{[]CC(O)[]},PVA,,,,
Systematic_Generation,,,PVA_Mn500k_PDI2.5,,,,,,,,,,,POLY_006916,500000,,Homopolymer,,2.5,{[]CC(O)[]},PVA,,,,
Systematic_Generation,,,PVA_Mn750k_PDI1.05,,,,,,,,,,,POLY_006917,750000,,Homopolymer,,1.05,{[]CC(O)[]},PVA,,,,
Systematic_Generation,,,PVA_Mn750k_PDI1.1,,,,,,,,,,,POLY_006918,750000,,Homopolymer,,1.1,{[]CC(O)[]},PVA,,,,
Systematic_Generation,,,PVA_Mn750k_PDI1.2,,,,,,,,,,,POLY_006919,750000,,Homopolymer,,1.2,{[]CC(O)[]},PVA,,,,
Systematic_Generation,,,PVA_Mn750k_PDI1.5,,,,,,,,,,,POLY_006920,750000,,Homopolymer,,1.5,{[]CC(O)[]},PVA,,,,
Systematic_Generation,,,PVA_Mn750k_PDI2.0,,,,,,,,,,,POLY_006921,750000,,Homopolymer,,2.0,{[]CC(O)[]},PVA,,,,
Systematic_Generation,,,PVA_Mn750k_PDI2.5,,,,,,,,,,,POLY_006922,750000,,Homopolymer,,2.5,{[]CC(O)[]},PVA,,,,
Systematic_Generation,,,PVA_Mn1000k_PDI1.05,,,,,,,,,,,POLY_006923,1000000,,Homopolymer,,1.05,{[]CC(O)[]},PVA,,,,
Systematic_Generation,,,PVA_Mn1000k_PDI1.1,,,,,,,,,,,POLY_006924,1000000,,Homopolymer,,1.1,{[]CC(O)[]},PVA,,,,
Systematic_Generation,,,PVA_Mn1000k_PDI1.2,,,,,,,,,,,POLY_006925,1000000,,Homopolymer,,1.2,{[]CC(O)[]},PVA,,,,
Systematic_Generation,,,PVA_Mn1000k_PDI1.5,,,,,,,,,,,POLY_006926,1000000,,Homopolymer,,1.5,{[]CC(O)[]},PVA,,,,
Systematic_Generation,,,PVA_Mn1000k_PDI2.0,,,,,,,,,,,POLY_006927,1000000,,Homopolymer,,2.0,{[]CC(O)[]},PVA,,,,
Systematic_Generation,,,PVA_Mn1000k_PDI2.5,,,,,,,,,,,POLY_006928,1000000,,Homopolymer,,2.5,{[]CC(O)[]},PVA,,,,
Systematic_Generation,,,PVAc_Mn5k_PDI1.05,,,,,,,,,,,POLY_006929,5000,,Homopolymer,,1.05,{[]CC(OC(=O)C)[]},PVAc,,,,
Systematic_Generation,,,PVAc_Mn5k_PDI1.1,,,,,,,,,,,POLY_006930,5000,,Homopolymer,,1.1,{[]CC(OC(=O)C)[]},PVAc,,,,
Systematic_Generation,,,PVAc_Mn5k_PDI1.2,,,,,,,,,,,POLY_006931,5000,,Homopolymer,,1.2,{[]CC(OC(=O)C)[]},PVAc,,,,
Systematic_Generation,,,PVAc_Mn5k_PDI1.5,,,,,,,,,,,POLY_006932,5000,,Homopolymer,,1.5,{[]CC(OC(=O)C)[]},PVAc,,,,
Systematic_Generation,,,PVAc_Mn5k_PDI2.0,,,,,,,,,,,POLY_006933,5000,,Homopolymer,,2.0,{[]CC(OC(=O)C)[]},PVAc,,,,
Systematic_Generation,,,PVAc_Mn5k_PDI2.5,,,,,,,,,,,POLY_006934,5000,,Homopolymer,,2.5,{[]CC(OC(=O)C)[]},PVAc,,,,
Systematic_Generation,,,PVAc_Mn10k_PDI1.05,,,,,,,,,,,POLY_006935,10000,,Homopolymer,,1.05,{[]CC(OC(=O)C)[]},PVAc,,,,
Systematic_Generation,,,PVAc_Mn10k_PDI1.1,,,,,,,,,,,POLY_006936,10000,,Homopolymer,,1.1,{[]CC(OC(=O)C)[]},PVAc,,,,
Systematic_Generation,,,PVAc_Mn10k_PDI1.2,,,,,,,,,,,POLY_006937,10000,,Homopolymer,,1.2,{[]CC(OC(=O)C)[]},PVAc,,,,
Systematic_Generation,,,PVAc_Mn10k_PDI1.5,,,,,,,,,,,POLY_006938,10000,,Homopolymer,,1.5,{[]CC(OC(=O)C)[]},PVAc,,,,
Systematic_Generation,,,PVAc_Mn10k_PDI2.0,,,,,,,,,,,POLY_006939,10000,,Homopolymer,,2.0,{[]CC(OC(=O)C)[]},PVAc,,,,
Systematic_Generation,,,PVAc_Mn10k_PDI2.5,,,,,,,,,,,POLY_006940,10000,,Homopolymer,,2.5,{[]CC(OC(=O)C)[]},PVAc,,,,
Systematic_Generation,,,PVAc_Mn25k_PDI1.05,,,,,,,,,,,POLY_006941,25000,,Homopolymer,,1.05,{[]CC(OC(=O)C)[]},PVAc,,,,
Systematic_Generation,,,PVAc_Mn25k_PDI1.1,,,,,,,,,,,POLY_006942,25000,,Homopolymer,,1.1,{[]CC(OC(=O)C)[]},PVAc,,,,
Systematic_Generation,,,PVAc_Mn25k_PDI1.2,,,,,,,,,,,POLY_006943,25000,,Homopolymer,,1.2,{[]CC(OC(=O)C)[]},PVAc,,,,
Systematic_Generation,,,PVAc_Mn25k_PDI1.5,,,,,,,,,,,POLY_006944,25000,,Homopolymer,,1.5,{[]CC(OC(=O)C)[]},PVAc,,,,
Systematic_Generation,,,PVAc_Mn25k_PDI2.0,,,,,,,,,,,POLY_006945,25000,,Homopolymer,,2.0,{[]CC(OC(=O)C)[]},PVAc,,,,
Systematic_Generation,,,PVAc_Mn25k_PDI2.5,,,,,,,,,,,POLY_006946,25000,,Homopolymer,,2.5,{[]CC(OC(=O)C)[]},PVAc,,,,
Systematic_Generation,,,PVAc_Mn50k_PDI1.05,,,,,,,,,,,POLY_006947,50000,,Homopolymer,,1.05,{[]CC(OC(=O)C)[]},PVAc,,,,
Systematic_Generation,,,PVAc_Mn50k_PDI1.1,,,,,,,,,,,POLY_006948,50000,,Homopolymer,,1.1,{[]CC(OC(=O)C)[]},PVAc,,,,
Systematic_Generation,,,PVAc_Mn50k_PDI1.2,,,,,,,,,,,POLY_006949,50000,,Homopolymer,,1.2,{[]CC(OC(=O)C)[]},PVAc,,,,
Systematic_Generation,,,PVAc_Mn50k_PDI1.5,,,,,,,,,,,POLY_006950,50000,,Homopolymer,,1.5,{[]CC(OC(=O)C)[]},PVAc,,,,
Systematic_Generation,,,PVAc_Mn50k_PDI2.0,,,,,,,,,,,POLY_006951,50000,,Homopolymer,,2.0,{[]CC(OC(=O)C)[]},PVAc,,,,
Systematic_Generation,,,PVAc_Mn50k_PDI2.5,,,,,,,,,,,POLY_006952,50000,,Homopolymer,,2.5,{[]CC(OC(=O)C)[]},PVAc,,,,
Systematic_Generation,,,PVAc_Mn75k_PDI1.05,,,,,,,,,,,POLY_006953,75000,,Homopolymer,,1.05,{[]CC(OC(=O)C)[]},PVAc,,,,
Systematic_Generation,,,PVAc_Mn75k_PDI1.1,,,,,,,,,,,POLY_006954,75000,,Homopolymer,,1.1,{[]CC(OC(=O)C)[]},PVAc,,,,
Systematic_Generation,,,PVAc_Mn75k_PDI1.2,,,,,,,,,,,POLY_006955,75000,,Homopolymer,,1.2,{[]CC(OC(=O)C)[]},PVAc,,,,
Systematic_Generation,,,PVAc_Mn75k_PDI1.5,,,,,,,,,,,POLY_006956,75000,,Homopolymer,,1.5,{[]CC(OC(=O)C)[]},PVAc,,,,
Systematic_Generation,,,PVAc_Mn75k_PDI2.0,,,,,,,,,,,POLY_006957,75000,,Homopolymer,,2.0,{[]CC(OC(=O)C)[]},PVAc,,,,
Systematic_Generation,,,PVAc_Mn75k_PDI2.5,,,,,,,,,,,POLY_006958,75000,,Homopolymer,,2.5,{[]CC(OC(=O)C)[]},PVAc,,,,
Systematic_Generation,,,PVAc_Mn100k_PDI1.05,,,,,,,,,,,POLY_006959,100000,,Homopolymer,,1.05,{[]CC(OC(=O)C)[]},PVAc,,,,
Systematic_Generation,,,PVAc_Mn100k_PDI1.1,,,,,,,,,,,POLY_006960,100000,,Homopolymer,,1.1,{[]CC(OC(=O)C)[]},PVAc,,,,
Systematic_Generation,,,PVAc_Mn100k_PDI1.2,,,,,,,,,,,POLY_006961,100000,,Homopolymer,,1.2,{[]CC(OC(=O)C)[]},PVAc,,,,
Systematic_Generation,,,PVAc_Mn100k_PDI1.5,,,,,,,,,,,POLY_006962,100000,,Homopolymer,,1.5,{[]CC(OC(=O)C)[]},PVAc,,,,
Systematic_Generation,,,PVAc_Mn100k_PDI2.0,,,,,,,,,,,POLY_006963,100000,,Homopolymer,,2.0,{[]CC(OC(=O)C)[]},PVAc,,,,
Systematic_Generation,,,PVAc_Mn100k_PDI2.5,,,,,,,,,,,POLY_006964,100000,,Homopolymer,,2.5,{[]CC(OC(=O)C)[]},PVAc,,,,
Systematic_Generation,,,PVAc_Mn150k_PDI1.05,,,,,,,,,,,POLY_006965,150000,,Homopolymer,,1.05,{[]CC(OC(=O)C)[]},PVAc,,,,
Systematic_Generation,,,PVAc_Mn150k_PDI1.1,,,,,,,,,,,POLY_006966,150000,,Homopolymer,,1.1,{[]CC(OC(=O)C)[]},PVAc,,,,
Systematic_Generation,,,PVAc_Mn150k_PDI1.2,,,,,,,,,,,POLY_006967,150000,,Homopolymer,,1.2,{[]CC(OC(=O)C)[]},PVAc,,,,
Systematic_Generation,,,PVAc_Mn150k_PDI1.5,,,,,,,,,,,POLY_006968,150000,,Homopolymer,,1.5,{[]CC(OC(=O)C)[]},PVAc,,,,
Systematic_Generation,,,PVAc_Mn150k_PDI2.0,,,,,,,,,,,POLY_006969,150000,,Homopolymer,,2.0,{[]CC(OC(=O)C)[]},PVAc,,,,
Systematic_Generation,,,PVAc_Mn150k_PDI2.5,,,,,,,,,,,POLY_006970,150000,,Homopolymer,,2.5,{[]CC(OC(=O)C)[]},PVAc,,,,
Systematic_Generation,,,PVAc_Mn200k_PDI1.05,,,,,,,,,,,POLY_006971,200000,,Homopolymer,,1.05,{[]CC(OC(=O)C)[]},PVAc,,,,
Systematic_Generation,,,PVAc_Mn200k_PDI1.1,,,,,,,,,,,POLY_006972,200000,,Homopolymer,,1.1,{[]CC(OC(=O)C)[]},PVAc,,,,
Systematic_Generation,,,PVAc_Mn200k_PDI1.2,,,,,,,,,,,POLY_006973,200000,,Homopolymer,,1.2,{[]CC(OC(=O)C)[]},PVAc,,,,
Systematic_Generation,,,PVAc_Mn200k_PDI1.5,,,,,,,,,,,POLY_006974,200000,,Homopolymer,,1.5,{[]CC(OC(=O)C)[]},PVAc,,,,
Systematic_Generation,,,PVAc_Mn200k_PDI2.0,,,,,,,,,,,POLY_006975,200000,,Homopolymer,,2.0,{[]CC(OC(=O)C)[]},PVAc,,,,
Systematic_Generation,,,PVAc_Mn200k_PDI2.5,,,,,,,,,,,POLY_006976,200000,,Homopolymer,,2.5,{[]CC(OC(=O)C)[]},PVAc,,,,
Systematic_Generation,,,PVAc_Mn300k_PDI1.05,,,,,,,,,,,POLY_006977,300000,,Homopolymer,,1.05,{[]CC(OC(=O)C)[]},PVAc,,,,
Systematic_Generation,,,PVAc_Mn300k_PDI1.1,,,,,,,,,,,POLY_006978,300000,,Homopolymer,,1.1,{[]CC(OC(=O)C)[]},PVAc,,,,
Systematic_Generation,,,PVAc_Mn300k_PDI1.2,,,,,,,,,,,POLY_006979,300000,,Homopolymer,,1.2,{[]CC(OC(=O)C)[]},PVAc,,,,
Systematic_Generation,,,PVAc_Mn300k_PDI1.5,,,,,,,,,,,POLY_006980,300000,,Homopolymer,,1.5,{[]CC(OC(=O)C)[]},PVAc,,,,
Systematic_Generation,,,PVAc_Mn300k_PDI2.0,,,,,,,,,,,POLY_006981,300000,,Homopolymer,,2.0,{[]CC(OC(=O)C)[]},PVAc,,,,
Systematic_Generation,,,PVAc_Mn300k_PDI2.5,,,,,,,,,,,POLY_006982,300000,,Homopolymer,,2.5,{[]CC(OC(=O)C)[]},PVAc,,,,
Systematic_Generation,,,PVAc_Mn500k_PDI1.05,,,,,,,,,,,POLY_006983,500000,,Homopolymer,,1.05,{[]CC(OC(=O)C)[]},PVAc,,,,
Systematic_Generation,,,PVAc_Mn500k_PDI1.1,,,,,,,,,,,POLY_006984,500000,,Homopolymer,,1.1,{[]CC(OC(=O)C)[]},PVAc,,,,