source,n_elements,doping_concentration,name,termination,space_group,doping_level,volume_fraction,weight_percent,lattice_c,temperature,reinforcement,matrix,layers,material_id,molecular_weight,deposition_method,type,lattice_b,pdi,formula,composition,lattice_a,thickness_nm,dopant,substrate
Systematic_Generation,,,PVAc_Mn500k_PDI1.2,,,,,,,,,,,POLY_006985,500000,,Homopolymer,,1.2,{[]CC(OC(=O)C)[]},PVAc,,,,
Systematic_Generation,,,PVAc_Mn500k_PDI1.5,,,,,,,,,,,POLY_006986,500000,,Homopolymer,,1.5,{[]CC(OC(=O)C)[]},PVAc,,,,
Systematic_Generation,,,PVAc_Mn500k_PDI2.0,,,,,,,,,,,POLY_006987,500000,,Homopolymer,,2.0,{[]CC(OC(=O)C)[]},PVAc,,,,
Systematic_Generation,,,PVAc_Mn500k_PDI2.5,,,,,,,,,,,POLY_006988,500000,,Homopolymer,,2.5,{[]CC(OC(=O)C)[]},PVAc,,,,
Systematic_Generation,,,PVAc_Mn750k_PDI1.05,,,,,,,,,,,POLY_006989,750000,,Homopolymer,,1.05,{[]CC(OC(=O)C)[]},PVAc,,,,
Systematic_Generation,,,PVAc_Mn750k_PDI1.1,,,,,,,,,,,POLY_006990,750000,,Homopolymer,,1.1,{[]CC(OC(=O)C)[]},PVAc,,,,
Systematic_Generation,,,PVAc_Mn750k_PDI1.2,,,,,,,,,,,POLY_006991,750000,,Homopolymer,,1.2,{[]CC(OC(=O)C)[]},PVAc,,,,
Systematic_Generation,,,PVAc_Mn750k_PDI1.5,,,,,,,,,,,POLY_006992,750000,,Homopolymer,,1.5,{[]CC(OC(=O)C)[]},PVAc,,,,
Systematic_Generation,,,PVAc_Mn750k_PDI2.0,,,,,,,,,,,POLY_006993,750000,,Homopolymer,,2.0,{[]CC(OC(=O)C)[]},PVAc,,,,
Systematic_Generation,,,PVAc_Mn750k_PDI2.5,,,,,,,,,,,POLY_006994,750000,,Homopolymer,,2.5,{[]CC(OC(=O)C)[]},PVAc,,,,
Systematic_Generation,,,PVAc_Mn1000k_PDI1.05,,,,,,,,,,,POLY_006995,1000000,,Homopolymer,,1.05,{[]CC(OC(=O)C)[]},PVAc,,,,
Systematic_Generation,,,PVAc_Mn1000k_PDI1.1,,,,,,,,,,,POLY_006996,1000000,,Homopolymer,,1.1,{[]CC(OC(=O)C)[]},PVAc,,,,
Systematic_Generation,,,PVAc_Mn1000k_PDI1.2,,,,,,,,,,,POLY_006997,1000000,,Homopolymer,,1.2,{[]CC(OC(=O)C)[]},PVAc,,,,
Systematic_Generation,,,PVAc_Mn1000k_PDI1.5,,,,,,,,,,,POLY_006998,1000000,,Homopolymer,,1.5,{[]CC(OC(=O)C)[]},PVAc,,,,
Systematic_Generation,,,PVAc_Mn1000k_PDI2.0,,,,,,,,,,,POLY_006999,1000000,,Homopolymer,,2.0,{[]CC(OC(=O)C)[]},PVAc,,,,
Systematic_Generation,,,PVAc_Mn1000k_PDI2.5,,,,,,,,,,,POLY_007000,1000000,,Homopolymer,,2.5,{[]CC(OC(=O)C)[]},PVAc,,,,
Systematic_Generation,,,SBR_10_90_Mn50k,,,,,,,,,,,COPOLY_007001,50000,,Copolymer,,,Styrene:Butadiene,"Styrene:10%, Butadiene:90%",,,,
Systematic_Generation,,,SBR_10_90_Mn100k,,,,,,,,,,,COPOLY_007002,100000,,Copolymer,,,Styrene:Butadiene,"Styrene:10%, Butadiene:90%",,,,
Systematic_Generation,,,SBR_10_90_Mn200k,,,,,,,,,,,COPOLY_007003,200000,,Copolymer,,,Styrene:Butadiene,"Styrene:10%, Butadiene:90%",,,,
Systematic_Generation,,,SBR_10_90_Mn500k,,,,,,,,,,,COPOLY_007004,500000,,Copolymer,,,Styrene:Butadiene,"Styrene:10%, Butadiene:90%",,,,
Systematic_Generation,,,SBR_20_80_Mn50k,,,,,,,,,,,COPOLY_007005,50000,,Copolymer,,,Styrene:Butadiene,"Styrene:20%, Butadiene:80%",,,,
Systematic_Generation,,,SBR_20_80_Mn100k,,,,,,,,,,,COPOLY_007006,100000,,Copolymer,,,Styrene:Butadiene,"Styrene:20%, Butadiene:80%",,,,
Systematic_Generation,,,SBR_20_80_Mn200k,,,,,,,,,,,COPOLY_007007,200000,,Copolymer,,,Styrene:Butadiene,"Styrene:20%, Butadiene:80%",,,,
Systematic_Generation,,,SBR_20_80_Mn500k,,,,,,,,,,,COPOLY_007008,500000,,Copolymer,,,Styrene:Butadiene,"Styrene:20%, Butadiene:80%",,,,
Systematic_Generation,,,SBR_30_70_Mn50k,,,,,,,,,,,COPOLY_007009,50000,,Copolymer,,,Styrene:Butadiene,"Styrene:30%, Butadiene:70%",,,,
Systematic_Generation,,,SBR_30_70_Mn100k,,,,,,,,,,,COPOLY_007010,100000,,Copolymer,,,Styrene:Butadiene,"Styrene:30%, Butadiene:70%",,,,
Systematic_Generation,,,SBR_30_70_Mn200k,,,,,,,,,,,COPOLY_007011,200000,,Copolymer,,,Styrene:Butadiene,"Styrene:30%, Butadiene:70%",,,,
Systematic_Generation,,,SBR_30_70_Mn500k,,,,,,,,,,,COPOLY_007012,500000,,Copolymer,,,Styrene:Butadiene,"Styrene:30%, Butadiene:70%",,,,
Systematic_Generation,,,SBR_40_60_Mn50k,,,,,,,,,,,COPOLY_007013,50000,,Copolymer,,,Styrene:Butadiene,"Styrene:40%, Butadiene:60%",,,,
Systematic_Generation,,,SBR_40_60_Mn100k,,,,,,,,,,,COPOLY_007014,100000,,Copolymer,,,Styrene:Butadiene,"Styrene:40%, Butadiene:60%",,,,
Systematic_Generation,,,SBR_40_60_Mn200k,,,,,,,,,,,COPOLY_007015,200000,,Copolymer,,,Styrene:Butadiene,"Styrene:40%, Butadiene:60%",,,,
Systematic_Generation,,,SBR_40_60_Mn500k,,,,,,,,,,,COPOLY_007016,500000,,Copolymer,,,Styrene:Butadiene,"Styrene:40%, Butadiene:60%",,,,
Systematic_Generation,,,SBR_50_50_Mn50k,,,,,,,,,,,COPOLY_007017,50000,,Copolymer,,,Styrene:Butadiene,"Styrene:50%, Butadiene:50%",,,,
Systematic_Generation,,,SBR_50_50_Mn100k,,,,,,,,,,,COPOLY_007018,100000,,Copolymer,,,Styrene:Butadiene,"Styrene:50%, Butadiene:50%",,,,
Systematic_Generation,,,SBR_50_50_Mn200k,,,,,,,,,,,COPOLY_007019,200000,,Copolymer,,,Styrene:Butadiene,"Styrene:50%, Butadiene:50%",,,,
Systematic_Generation,,,SBR_50_50_Mn500k,,,,,,,,,,,COPOLY_007020,500000,,Copolymer,,,Styrene:Butadiene,"Styrene:50%, Butadiene:50%",,,,
Systematic_Generation,,,SBR_60_40_Mn50k,,,,,,,,,,,COPOLY_007021,50000,,Copolymer,,,Styrene:Butadiene,"Styrene:60%, Butadiene:40%",,,,
Systematic_Generation,,,SBR_60_40_Mn100k,,,,,,,,,,,COPOLY_007022,100000,,Copolymer,,,Styrene:Butadiene,"Styrene:60%, Butadiene:40%",,,,
Systematic_Generation,,,SBR_60_40_Mn200k,,,,,,,,,,,COPOLY_007023,200000,,Copolymer,,,Styrene:Butadiene,"Styrene:60%, Butadiene:40%",,,,
Systematic_Generation,,,SBR_60_40_Mn500k,,,,,,,,,,,COPOLY_007024,500000,,Copolymer,,,Styrene:Butadiene,"Styrene:60%, Butadiene:40%",,,,
Systematic_Generation,,,SBR_70_30_Mn50k,,,,,,,,,,,COPOLY_007025,50000,,Copolymer,,,Styrene:Butadiene,"Styrene:70%, Butadiene:30%",,,,
Systematic_Generation,,,SBR_70_30_Mn100k,,,,,,,,,,,COPOLY_007026,100000,,Copolymer,,,Styrene:Butadiene,"Styrene:70%, Butadiene:30%",,,,
Systematic_Generation,,,SBR_70_30_Mn200k,,,,,,,,,,,COPOLY_007027,200000,,Copolymer,,,Styrene:Butadiene,"Styrene:70%, Butadiene:30%",,,,
Systematic_Generation,,,SBR_70_30_Mn500k,,,,,,,,,,,COPOLY_007028,500000,,Copolymer,,,Styrene:Butadiene,"Styrene:70%, Butadiene:30%",,,,
Systematic_Generation,,,SBR_80_20_Mn50k,,,,,,,,,,,COPOLY_007029,50000,,Copolymer,,,Styrene:Butadiene,"Styrene:80%, Butadiene:20%",,,,
Systematic_Generation,,,SBR_80_20_Mn100k,,,,,,,,,,,COPOLY_007030,100000,,Copolymer,,,Styrene:Butadiene,"Styrene:80%, Butadiene:20%",,,,
Systematic_Generation,,,SBR_80_20_Mn200k,,,,,,,,,,,COPOLY_007031,200000,,Copolymer,,,Styrene:Butadiene,"Styrene:80%, Butadiene:20%",,,,
Systematic_Generation,,,SBR_80_20_Mn500k,,,,,,,,,,,COPOLY_007032,500000,,Copolymer,,,Styrene:Butadiene,"Styrene:80%, Butadiene:20%",,,,
Systematic_Generation,,,SBR_90_10_Mn50k,,,,,,,,,,,COPOLY_007033,50000,,Copolymer,,,Styrene:Butadiene,"Styrene:90%, Butadiene:10%",,,,
Systematic_Generation,,,SBR_90_10_Mn100k,,,,,,,,,,,COPOLY_007034,100000,,Copolymer,,,Styrene:Butadiene,"Styrene:90%, Butadiene:10%",,,,
Systematic_Generation,,,SBR_90_10_Mn200k,,,,,,,,,,,COPOLY_007035,200000,,Copolymer,,,Styrene:Butadiene,"Styrene:90%, Butadiene:10%",,,,
Systematic_Generation,,,SBR_90_10_Mn500k,,,,,,,,,,,COPOLY_007036,500000,,Copolymer,,,Styrene:Butadiene,"Styrene:90%, Butadiene:10%",,,,
Systematic_Generation,,,SAN_10_90_Mn50k,,,,,,,,,,,COPOLY_007037,50000,,Copolymer,,,Styrene:Acrylonitrile,"Styrene:10%, Acrylonitrile:90%",,,,
Systematic_Generation,,,SAN_10_90_Mn100k,,,,,,,,,,,COPOLY_007038,100000,,Copolymer,,,Styrene:Acrylonitrile,"Styrene:10%, Acrylonitrile:90%",,,,
Systematic_Generation,,,SAN_10_90_Mn200k,,,,,,,,,,,COPOLY_007039,200000,,Copolymer,,,Styrene:Acrylonitrile,"Styrene:10%, Acrylonitrile:90%",,,,
Systematic_Generation,,,SAN_10_90_Mn500k,,,,,,,,,,,COPOLY_007040,500000,,Copolymer,,,Styrene:Acrylonitrile,"Styrene:10%, Acrylonitrile:90%",,,,
Systematic_Generation,,,SAN_20_80_Mn50k,,,,,,,,,,,COPOLY_007041,50000,,Copolymer,,,Styrene:Acrylonitrile,"Styrene:20%, Acrylonitrile:80%",,,,
Systematic_Generation,,,SAN_20_80_Mn100k,,,,,,,,,,,COPOLY_007042,100000,,Copolymer,,,Styrene:Acrylonitrile,"Styrene:20%, Acrylonitrile:80%",,,,
Systematic_Generation,,,SAN_20_80_Mn200k,,,,,,,,,,,COPOLY_007043,200000,,Copolymer,,,Styrene:Acrylonitrile,"Styrene:20%, Acrylonitrile:80%",,,,
Systematic_Generation,,,SAN_20_80_Mn500k,,,,,,,,,,,COPOLY_007044,500000,,Copolymer,,,Styrene:Acrylonitrile,"Styrene:20%, Acrylonitrile:80%",,,,
Systematic_Generation,,,SAN_30_70_Mn50k,,,,,,,,,,,COPOLY_007045,50000,,Copolymer,,,Styrene:Acrylonitrile,"Styrene:30%, Acrylonitrile:70%",,,,
Systematic_Generation,,,SAN_30_70_Mn100k,,,,,,,,,,,COPOLY_007046,100000,,Copolymer,,,Styrene:Acrylonitrile,"Styrene:30%, Acrylonitrile:70%",,,,
Systematic_Generation,,,SAN_30_70_Mn200k,,,,,,,,,,,COPOLY_007047,200000,,Copolymer,,,Styrene:Acrylonitrile,"Styrene:30%, Acrylonitrile:70%",,,,
Systematic_Generation,,,SAN_30_70_Mn500k,,,,,,,,,,,COPOLY_007048,500000,,Copolymer,,,Styrene:Acrylonitrile,"Styrene:30%, Acrylonitrile:70%",,,,
Systematic_Generation,,,SAN_40_60_Mn50k,,,,,,,,,,,COPOLY_007049,50000,,Copolymer,,,Styrene:Acrylonitrile,"Styrene:40%, Acrylonitrile:60%",,,,
Systematic_Generation,,,SAN_40_60_Mn100k,,,,,,,,,,,COPOLY_007050,100000,,Copolymer,,,Styrene:Acrylonitrile,"Styrene:40%, Acrylonitrile:60%",,,,
Systematic_Generation,,,SAN_40_60_Mn200k,,,,,,,,,,,COPOLY_007051,200000,,Copolymer,,,Styrene:Acrylonitrile,"Styrene:40%, Acrylonitrile:60%",,,,
Systematic_Generation,,,SAN_40_60_Mn500k,,,,,,,,,,,COPOLY_007052,500000,,Copolymer,,,Styrene:Acrylonitrile,"Styrene:40%, Acrylonitrile:60%",,,,
Systematic_Generation,,,SAN_50_50_Mn50k,,,,,,,,,,,COPOLY_007053,50000,,Copolymer,,,Styrene:Acrylonitrile,"Styrene:50%, Acrylonitrile:50%",,,,
Systematic_Generation,,,SAN_50_50_Mn100k,,,,,,,,,,,COPOLY_007054,100000,,Copolymer,,,Styrene:Acrylonitrile,"Styrene:50%, Acrylonitrile:50%",,,,
Systematic_Generation,,,SAN_50_50_Mn200k,,,,,,,,,,,COPOLY_007055,200000,,Copolymer,,,Styrene:Acrylonitrile,"Styrene:50%, Acrylonitrile:50%",,,,
Systematic_Generation,,,SAN_50_50_Mn500k,,,,,,,,,,,COPOLY_007056,500000,,Copolymer,,,Styrene:Acrylonitrile,"Styrene:50%, Acrylonitrile:50%",,,,
Systematic_Generation,,,SAN_60_40_Mn50k,,,,,,,,,,,COPOLY_007057,50000,,Copolymer,,,Styrene:Acrylonitrile,"Styrene:60%, Acrylonitrile:40%",,,,
Systematic_Generation,,,SAN_60_40_Mn100k,,,,,,,,,,,COPOLY_007058,100000,,Copolymer,,,Styrene:Acrylonitrile,"Styrene:60%, Acrylonitrile:40%",,,,
Systematic_Generation,,,SAN_60_40_Mn200k,,,,,,,,,,,COPOLY_007059,200000,,Copolymer,,,Styrene:Acrylonitrile,"Styrene:60%, Acrylonitrile:40%",,,,
Systematic_Generation,,,SAN_60_40_Mn500k,,,,,,,,,,,COPOLY_007060,500000,,Copolymer,,,Styrene:Acrylonitrile,"Styrene:60%, Acrylonitrile:40%",,,,
Systematic_Generation,,,SAN_70_30_Mn50k,,,,,,,,,,,COPOLY_007061,50000,,Copolymer,,,Styrene:Acrylonitrile,"Styrene:70%, Acrylonitrile:30%",,,,
Systematic_Generation,,,SAN_70_30_Mn100k,,,,,,,,,,,COPOLY_007062,100000,,Copolymer,,,Styrene:Acrylonitrile,"Styrene:70%, Acrylonitrile:30%",,,,
Systematic_Generation,,,SAN_70_30_Mn200k,,,,,,,,,,,COPOLY_007063,200000,,Copolymer,,,Styrene:Acrylonitrile,"Styrene:70%, Acrylonitrile:30%",,,,
Systematic_Generation,,,SAN_70_30_Mn500k,,,,,,,,,,,COPOLY_007064,500000,,Copolymer,,,Styrene:Acrylonitrile,"Styrene:70%, Acrylonitrile:30%",,,,
Systematic_Generation,,,SAN_80_20_Mn50k,,,,,,,,,,,COPOLY_007065,50000,,Copolymer,,,Styrene:Acrylonitrile,"Styrene:80%, Acrylonitrile:20%",,,,
Systematic_Generation,,,SAN_80_20_Mn100k,,,,,,,,,,,COPOLY_007066,100000,,Copolymer,,,Styrene:Acrylonitrile,"Styrene:80%, Acrylonitrile:20%",,,,
Systematic_Generation,,,SAN_80_20_Mn200k,,,,,,,,,,,COPOLY_007067,200000,,Copolymer,,,Styrene:Acrylonitrile,"Styrene:80%, Acrylonitrile:20%",,,,
Systematic_Generation,,,SAN_80_20_Mn500k,,,,,,,,,,,COPOLY_007068,500000,,Copolymer,,,Styrene:Acrylonitrile,"Styrene:80%, Acrylonitrile:20%",,,,
Systematic_Generation,,,SAN_90_10_Mn50k,,,,,,,,,,,COPOLY_007069,50000,,Copolymer,,,Styrene:Acrylonitrile,"Styrene:90%, Acrylonitrile:10%",,,,
Systematic_Generation,,,SAN_90_10_Mn100k,,,,,,,,,,,COPOLY_007070,100000,,Copolymer,,,Styrene:Acrylonitrile,"Styrene:90%, Acrylonitrile:10%",,,,
Systematic_Generation,,,SAN_90_10_Mn200k,,,,,,,,,,,COPOLY_007071,200000,,Copolymer,,,Styrene:Acrylonitrile,"Styrene:90%, Acrylonitrile:10%",,,,
Systematic_Generation,,,SAN_90_10_Mn500k,,,,,,,,,,,COPOLY_007072,500000,,Copolymer,,,Styrene:Acrylonitrile,"Styrene:90%, Acrylonitrile:10%",,,,
Systematic_Generation,,,EVA_10_90_Mn50k,,,,,,,,,,,COPOLY_007073,50000,,Copolymer,,,Ethylene:Vinyl_acetate,"Ethylene:10%, Vinyl_acetate:90%",,,,
Systematic_Generation,,,EVA_10_90_Mn100k,,,,,,,,,,,COPOLY_007074,100000,,Copolymer,,,Ethylene:Vinyl_acetate,"Ethylene:10%, Vinyl_acetate:90%",,,,
Systematic_Generation,,,EVA_10_90_Mn200k,,,,,,,,,,,COPOLY_007075,200000,,Copolymer,,,Ethylene:Vinyl_acetate,"Ethylene:10%, Vinyl_acetate:90%",,,,
Systematic_Generation,,,EVA_10_90_Mn500k,,,,,,,,,,,COPOLY_007076,500000,,Copolymer,,,Ethylene:Vinyl_acetate,"Ethylene:10%, Vinyl_acetate:90%",,,,
Systematic_Generation,,,EVA_20_80_Mn50k,,,,,,,,,,,COPOLY_007077,50000,,Copolymer,,,Ethylene:Vinyl_acetate,"Ethylene:20%, Vinyl_acetate:80%",,,,
Systematic_Generation,,,EVA_20_80_Mn100k,,,,,,,,,,,COPOLY_007078,100000,,Copolymer,,,Ethylene:Vinyl_acetate,"Ethylene:20%, Vinyl_acetate:80%",,,,
Systematic_Generation,,,EVA_20_80_Mn200k,,,,,,,,,,,COPOLY_007079,200000,,Copolymer,,,Ethylene:Vinyl_acetate,"Ethylene:20%, Vinyl_acetate:80%",,,,
Systematic_Generation,,,EVA_20_80_Mn500k,,,,,,,,,,,COPOLY_007080,500000,,Copolymer,,,Ethylene:Vinyl_acetate,"Ethylene:20%, Vinyl_acetate:80%",,,,
Systematic_Generation,,,EVA_30_70_Mn50k,,,,,,,,,,,COPOLY_007081,50000,,Copolymer,,,Ethylene:Vinyl_acetate,"Ethylene:30%, Vinyl_acetate:70%",,,,
Systematic_Generation,,,EVA_30_70_Mn100k,,,,,,,,,,,COPOLY_007082,100000,,Copolymer,,,Ethylene:Vinyl_acetate,"Ethylene:30%, Vinyl_acetate:70%",,,,
Systematic_Generation,,,EVA_30_70_Mn200k,,,,,,,,,,,COPOLY_007083,200000,,Copolymer,,,Ethylene:Vinyl_acetate,"Ethylene:30%, Vinyl_acetate:70%",,,,
Systematic_Generation,,,EVA_30_70_Mn500k,,,,,,,,,,,COPOLY_007084,500000,,Copolymer,,,Ethylene:Vinyl_acetate,"Ethylene:30%, Vinyl_acetate:70%",,,,
Systematic_Generation,,,EVA_40_60_Mn50k,,,,,,,,,,,COPOLY_007085,50000,,Copolymer,,,Ethylene:Vinyl_acetate,"Ethylene:40%, Vinyl_acetate:60%",,,,
Systematic_Generation,,,EVA_40_60_Mn100k,,,,,,,,,,,COPOLY_007086,100000,,Copolymer,,,Ethylene:Vinyl_acetate,"Ethylene:40%, Vinyl_acetate:60%",,,,
Systematic_Generation,,,EVA_40_60_Mn200k,,,,,,,,,,,COPOLY_007087,200000,,Copolymer,,,Ethylene:Vinyl_acetate,"Ethylene:40%, Vinyl_acetate:60%",,,,
Systematic_Generation,,,EVA_40_60_Mn500k,,,,,,,,,,,COPOLY_007088,500000,,Copolymer,,,Ethylene:Vinyl_acetate,"Ethylene:40%, Vinyl_acetate:60%",,,,
Systematic_Generation,,,EVA_50_50_Mn50k,,,,,,,,,,,COPOLY_007089,50000,,Copolymer,,,Ethylene:Vinyl_acetate,"Ethylene:50%, Vinyl_acetate:50%",,,,
Systematic_Generation,,,EVA_50_50_Mn100k,,,,,,,,,,,COPOLY_007090,100000,,Copolymer,,,Ethylene:Vinyl_acetate,"Ethylene:50%, Vinyl_acetate:50%",,,,
Systematic_Generation,,,EVA_50_50_Mn200k,,,,,,,,,,,COPOLY_007091,200000,,Copolymer,,,Ethylene:Vinyl_acetate,"Ethylene:50%, Vinyl_acetate:50%",,,,
Systematic_Generation,,,EVA_50_50_Mn500k,,,,,,,,,,,COPOLY_007092,500000,,Copolymer,,,Ethylene:Vinyl_acetate,"Ethylene:50%, Vinyl_acetate:50%",,,,
Systematic_Generation,,,EVA_60_40_Mn50k,,,,,,,,,,,COPOLY_007093,50000,,Copolymer,,,Ethylene:Vinyl_acetate,"Ethylene:60%, Vinyl_acetate:40%",,,,
Systematic_Generation,,,EVA_60_40_Mn100k,,,,,,,,,,,COPOLY_007094,100000,,Copolymer,,,Ethylene:Vinyl_acetate,"Ethylene:60%, Vinyl_acetate:40%",,,,
Systematic_Generation,,,EVA_60_40_Mn200k,,,,,,,,,,,COPOLY_007095,200000,,Copolymer,,,Ethylene:Vinyl_acetate,"Ethylene:60%, Vinyl_acetate:40%",,,,
Systematic_Generation,,,EVA_60_40_Mn500k,,,,,,,,,,,COPOLY_007096,500000,,Copolymer,,,Ethylene:Vinyl_acetate,"Ethylene:60%, Vinyl_acetate:40%",,,,
Systematic_Generation,,,EVA_70_30_Mn50k,,,,,,,,,,,COPOLY_007097,50000,,Copolymer,,,Ethylene:Vinyl_acetate,"Ethylene:70%, Vinyl_acetate:30%",,,,
Systematic_Generation,,,EVA_70_30_Mn100k,,,,,,,,,,,COPOLY_007098,100000,,Copolymer,,,Ethylene:Vinyl_acetate,"Ethylene:70%, Vinyl_acetate:30%",,,,
Systematic_Generation,,,EVA_70_30_Mn200k,,,,,,,,,,,COPOLY_007099,200000,,Copolymer,,,Ethylene:Vinyl_acetate,"Ethylene:70%, Vinyl_acetate:30%",,,,
Systematic_Generation,,,EVA_70_30_Mn500k,,,,,,,,,,,COPOLY_007100,500000,,Copolymer,,,Ethylene:Vinyl_acetate,"Ethylene:70%, Vinyl_acetate:30%",,,,
Systematic_Generation,,,EVA_80_20_Mn50k,,,,,,,,,,,COPOLY_007101,50000,,Copolymer,,,Ethylene:Vinyl_acetate,"Ethylene:80%, Vinyl_acetate:20%",,,,
Systematic_Generation,,,EVA_80_20_Mn100k,,,,,,,,,,,COPOLY_007102,100000,,Copolymer,,,Ethylene:Vinyl_acetate,"Ethylene:80%, Vinyl_acetate:20%",,,,
Systematic_Generation,,,EVA_80_20_Mn200k,,,,,,,,,,,COPOLY_007103,200000,,Copolymer,,,Ethylene:Vinyl_acetate,"Ethylene:80%, Vinyl_acetate:20%",,,,
Systematic_Generation,,,EVA_80_20_Mn500k,,,,,,,,,,,COPOLY_007104,500000,,Copolymer,,,Ethylene:Vinyl_acetate,"Ethylene:80%, Vinyl_acetate:20%",,,,
Systematic_Generation,,,EVA_90_10_Mn50k,,,,,,,,,,,COPOLY_007105,50000,,Copolymer,,,Ethylene:Vinyl_acetate,"Ethylene:90%, Vinyl_acetate:10%",,,,
Systematic_Generation,,,EVA_90_10_Mn100k,,,,,,,,,,,COPOLY_007106,100000,,Copolymer,,,Ethylene:Vinyl_acetate,"Ethylene:90%, Vinyl_acetate:10%",,,,
Systematic_Generation,,,EVA_90_10_Mn200k,,,,,,,,,,,COPOLY_007107,200000,,Copolymer,,,Ethylene:Vinyl_acetate,"Ethylene:90%, Vinyl_acetate:10%",,,,
Systematic_Generation,,,EVA_90_10_Mn500k,,,,,,,,,,,COPOLY_007108,500000,,Copolymer,,,Ethylene:Vinyl_acetate,"Ethylene:90%, Vinyl_acetate:10%",,,,
Systematic_Generation,,,VC-VA_10_90_Mn50k,,,,,,,,,,,COPOLY_007109,50000,,Copolymer,,,Vinyl_chloride:Vinyl_acetate,"Vinyl_chloride:10%, Vinyl_acetate:90%",,,,
Systematic_Generation,,,VC-VA_10_90_Mn100k,,,,,,,,,,,COPOLY_007110,100000,,Copolymer,,,Vinyl_chloride:Vinyl_acetate,"Vinyl_chloride:10%, Vinyl_acetate:90%",,,,
Systematic_Generation,,,VC-VA_10_90_Mn200k,,,,,,,,,,,COPOLY_007111,200000,,Copolymer,,,Vinyl_chloride:Vinyl_acetate,"Vinyl_chloride:10%, Vinyl_acetate:90%",,,,
Systematic_Generation,,,VC-VA_10_90_Mn500k,,,,,,,,,,,COPOLY_007112,500000,,Copolymer,,,Vinyl_chloride:Vinyl_acetate,"Vinyl_chloride:10%, Vinyl_acetate:90%",,,,
Systematic_Generation,,,VC-VA_20_80_Mn50k,,,,,,,,,,,COPOLY_007113,50000,,Copolymer,,,Vinyl_chloride:Vinyl_acetate,"Vinyl_chloride:20%, Vinyl_acetate:80%",,,,
Systematic_Generation,,,VC-VA_20_80_Mn100k,,,,,,,,,,,COPOLY_007114,100000,,Copolymer,,,Vinyl_chloride:Vinyl_acetate,"Vinyl_chloride:20%, Vinyl_acetate:80%",,,,
Systematic_Generation,,,VC-VA_20_80_Mn200k,,,,,,,,,,,COPOLY_007115,200000,,Copolymer,,,Vinyl_chloride:Vinyl_acetate,"Vinyl_chloride:20%, Vinyl_acetate:80%",,,,
Systematic_Generation,,,VC-VA_20_80_Mn500k,,,,,,,,,,,COPOLY_007116,500000,,Copolymer,,,Vinyl_chloride:Vinyl_acetate,"Vinyl_chloride:20%, Vinyl_acetate:80%",,,,
Systematic_Generation,,,VC-VA_30_70_Mn50k,,,,,,,,,,,COPOLY_007117,50000,,Copolymer,,,Vinyl_chloride:Vinyl_acetate,"Vinyl_chloride:30%, Vinyl_acetate:70%",,,,
Systematic_Generation,,,VC-VA_30_70_Mn100k,,,,,,,,,,,COPOLY_007118,100000,,Copolymer,,,Vinyl_chloride:Vinyl_acetate,"Vinyl_chloride:30%, Vinyl_acetate:70%",,,,
Systematic_Generation,,,VC-VA_30_70_Mn200k,,,,,,,,,,,COPOLY_007119,200000,,Copolymer,,,Vinyl_chloride:Vinyl_acetate,"Vinyl_chloride:30%, Vinyl_acetate:70%",,,,
Systematic_Generation,,,VC-VA_30_70_Mn500k,,,,,,,,,,,COPOLY_007120,500000,,Copolymer,,,Vinyl_chloride:Vinyl_acetate,"Vinyl_chloride:30%, Vinyl_acetate:70%",,,,
Systematic_Generation,,,VC-VA_40_60_Mn50k,,,,,,,,,,,COPOLY_007121,50000,,Copolymer,,,Vinyl_chloride:Vinyl_acetate,"Vinyl_chloride:40%, Vinyl_acetate:60%",,,,
Systematic_Generation,,,VC-VA_40_60_Mn100k,,,,,,,,,,,COPOLY_007122,100000,,Copolymer,,,Vinyl_chloride:Vinyl_acetate,"Vinyl_chloride:40%, Vinyl_acetate:60%",,,,
Systematic_Generation,,,VC-VA_40_60_Mn200k,,,,,,,,,,,COPOLY_007123,200000,,Copolymer,,,Vinyl_chloride:Vinyl_acetate,"Vinyl_chloride:40%, Vinyl_acetate:60%",,,,