source,n_elements,doping_concentration,name,termination,space_group,doping_level,volume_fraction,weight_percent,lattice_c,temperature,reinforcement,matrix,layers,material_id,molecular_weight,deposition_method,type,lattice_b,pdi,formula,composition,lattice_a,thickness_nm,dopant,substrate
Systematic_Generation,,5e+17,InAs:Bi_5.0e+17,,Inherited,,,,,,,,,DOPED_003959,,,Doped_Semiconductor,,,InAs_Bi,InAs + Bi @ 5.0e+17 cm^-3,,,Bi,
Systematic_Generation,,1e+18,InAs:Bi_1.0e+18,,Inherited,,,,,,,,,DOPED_003960,,,Doped_Semiconductor,,,InAs_Bi,InAs + Bi @ 1.0e+18 cm^-3,,,Bi,
Systematic_Generation,,5e+18,InAs:Bi_5.0e+18,,Inherited,,,,,,,,,DOPED_003961,,,Doped_Semiconductor,,,InAs_Bi,InAs + Bi @ 5.0e+18 cm^-3,,,Bi,
Systematic_Generation,,1e+19,InAs:Bi_1.0e+19,,Inherited,,,,,,,,,DOPED_003962,,,Doped_Semiconductor,,,InAs_Bi,InAs + Bi @ 1.0e+19 cm^-3,,,Bi,
Systematic_Generation,,5e+19,InAs:Bi_5.0e+19,,Inherited,,,,,,,,,DOPED_003963,,,Doped_Semiconductor,,,InAs_Bi,InAs + Bi @ 5.0e+19 cm^-3,,,Bi,
Systematic_Generation,,1e+20,InAs:Bi_1.0e+20,,Inherited,,,,,,,,,DOPED_003964,,,Doped_Semiconductor,,,InAs_Bi,InAs + Bi @ 1.0e+20 cm^-3,,,Bi,
Systematic_Generation,,1e+21,InAs:Bi_1.0e+21,,Inherited,,,,,,,,,DOPED_003965,,,Doped_Semiconductor,,,InAs_Bi,InAs + Bi @ 1.0e+21 cm^-3,,,Bi,
Systematic_Generation,,1000000000000000.0,InAs:Li_1.0e+15,,Inherited,,,,,,,,,DOPED_003966,,,Doped_Semiconductor,,,InAs_Li,InAs + Li @ 1.0e+15 cm^-3,,,Li,
Systematic_Generation,,5000000000000000.0,InAs:Li_5.0e+15,,Inherited,,,,,,,,,DOPED_003967,,,Doped_Semiconductor,,,InAs_Li,InAs + Li @ 5.0e+15 cm^-3,,,Li,
Systematic_Generation,,1e+16,InAs:Li_1.0e+16,,Inherited,,,,,,,,,DOPED_003968,,,Doped_Semiconductor,,,InAs_Li,InAs + Li @ 1.0e+16 cm^-3,,,Li,
Systematic_Generation,,5e+16,InAs:Li_5.0e+16,,Inherited,,,,,,,,,DOPED_003969,,,Doped_Semiconductor,,,InAs_Li,InAs + Li @ 5.0e+16 cm^-3,,,Li,
Systematic_Generation,,1e+17,InAs:Li_1.0e+17,,Inherited,,,,,,,,,DOPED_003970,,,Doped_Semiconductor,,,InAs_Li,InAs + Li @ 1.0e+17 cm^-3,,,Li,
Systematic_Generation,,5e+17,InAs:Li_5.0e+17,,Inherited,,,,,,,,,DOPED_003971,,,Doped_Semiconductor,,,InAs_Li,InAs + Li @ 5.0e+17 cm^-3,,,Li,
Systematic_Generation,,1e+18,InAs:Li_1.0e+18,,Inherited,,,,,,,,,DOPED_003972,,,Doped_Semiconductor,,,InAs_Li,InAs + Li @ 1.0e+18 cm^-3,,,Li,
Systematic_Generation,,5e+18,InAs:Li_5.0e+18,,Inherited,,,,,,,,,DOPED_003973,,,Doped_Semiconductor,,,InAs_Li,InAs + Li @ 5.0e+18 cm^-3,,,Li,
Systematic_Generation,,1e+19,InAs:Li_1.0e+19,,Inherited,,,,,,,,,DOPED_003974,,,Doped_Semiconductor,,,InAs_Li,InAs + Li @ 1.0e+19 cm^-3,,,Li,
Systematic_Generation,,5e+19,InAs:Li_5.0e+19,,Inherited,,,,,,,,,DOPED_003975,,,Doped_Semiconductor,,,InAs_Li,InAs + Li @ 5.0e+19 cm^-3,,,Li,
Systematic_Generation,,1e+20,InAs:Li_1.0e+20,,Inherited,,,,,,,,,DOPED_003976,,,Doped_Semiconductor,,,InAs_Li,InAs + Li @ 1.0e+20 cm^-3,,,Li,
Systematic_Generation,,1e+21,InAs:Li_1.0e+21,,Inherited,,,,,,,,,DOPED_003977,,,Doped_Semiconductor,,,InAs_Li,InAs + Li @ 1.0e+21 cm^-3,,,Li,
Systematic_Generation,,1000000000000000.0,InAs:S_1.0e+15,,Inherited,,,,,,,,,DOPED_003978,,,Doped_Semiconductor,,,InAs_S,InAs + S @ 1.0e+15 cm^-3,,,S,
Systematic_Generation,,5000000000000000.0,InAs:S_5.0e+15,,Inherited,,,,,,,,,DOPED_003979,,,Doped_Semiconductor,,,InAs_S,InAs + S @ 5.0e+15 cm^-3,,,S,
Systematic_Generation,,1e+16,InAs:S_1.0e+16,,Inherited,,,,,,,,,DOPED_003980,,,Doped_Semiconductor,,,InAs_S,InAs + S @ 1.0e+16 cm^-3,,,S,
Systematic_Generation,,5e+16,InAs:S_5.0e+16,,Inherited,,,,,,,,,DOPED_003981,,,Doped_Semiconductor,,,InAs_S,InAs + S @ 5.0e+16 cm^-3,,,S,
Systematic_Generation,,1e+17,InAs:S_1.0e+17,,Inherited,,,,,,,,,DOPED_003982,,,Doped_Semiconductor,,,InAs_S,InAs + S @ 1.0e+17 cm^-3,,,S,
Systematic_Generation,,5e+17,InAs:S_5.0e+17,,Inherited,,,,,,,,,DOPED_003983,,,Doped_Semiconductor,,,InAs_S,InAs + S @ 5.0e+17 cm^-3,,,S,
Systematic_Generation,,1e+18,InAs:S_1.0e+18,,Inherited,,,,,,,,,DOPED_003984,,,Doped_Semiconductor,,,InAs_S,InAs + S @ 1.0e+18 cm^-3,,,S,
Systematic_Generation,,5e+18,InAs:S_5.0e+18,,Inherited,,,,,,,,,DOPED_003985,,,Doped_Semiconductor,,,InAs_S,InAs + S @ 5.0e+18 cm^-3,,,S,
Systematic_Generation,,1e+19,InAs:S_1.0e+19,,Inherited,,,,,,,,,DOPED_003986,,,Doped_Semiconductor,,,InAs_S,InAs + S @ 1.0e+19 cm^-3,,,S,
Systematic_Generation,,5e+19,InAs:S_5.0e+19,,Inherited,,,,,,,,,DOPED_003987,,,Doped_Semiconductor,,,InAs_S,InAs + S @ 5.0e+19 cm^-3,,,S,
Systematic_Generation,,1e+20,InAs:S_1.0e+20,,Inherited,,,,,,,,,DOPED_003988,,,Doped_Semiconductor,,,InAs_S,InAs + S @ 1.0e+20 cm^-3,,,S,
Systematic_Generation,,1e+21,InAs:S_1.0e+21,,Inherited,,,,,,,,,DOPED_003989,,,Doped_Semiconductor,,,InAs_S,InAs + S @ 1.0e+21 cm^-3,,,S,
Systematic_Generation,,1000000000000000.0,InAs:Se_1.0e+15,,Inherited,,,,,,,,,DOPED_003990,,,Doped_Semiconductor,,,InAs_Se,InAs + Se @ 1.0e+15 cm^-3,,,Se,
Systematic_Generation,,5000000000000000.0,InAs:Se_5.0e+15,,Inherited,,,,,,,,,DOPED_003991,,,Doped_Semiconductor,,,InAs_Se,InAs + Se @ 5.0e+15 cm^-3,,,Se,
Systematic_Generation,,1e+16,InAs:Se_1.0e+16,,Inherited,,,,,,,,,DOPED_003992,,,Doped_Semiconductor,,,InAs_Se,InAs + Se @ 1.0e+16 cm^-3,,,Se,
Systematic_Generation,,5e+16,InAs:Se_5.0e+16,,Inherited,,,,,,,,,DOPED_003993,,,Doped_Semiconductor,,,InAs_Se,InAs + Se @ 5.0e+16 cm^-3,,,Se,
Systematic_Generation,,1e+17,InAs:Se_1.0e+17,,Inherited,,,,,,,,,DOPED_003994,,,Doped_Semiconductor,,,InAs_Se,InAs + Se @ 1.0e+17 cm^-3,,,Se,
Systematic_Generation,,5e+17,InAs:Se_5.0e+17,,Inherited,,,,,,,,,DOPED_003995,,,Doped_Semiconductor,,,InAs_Se,InAs + Se @ 5.0e+17 cm^-3,,,Se,
Systematic_Generation,,1e+18,InAs:Se_1.0e+18,,Inherited,,,,,,,,,DOPED_003996,,,Doped_Semiconductor,,,InAs_Se,InAs + Se @ 1.0e+18 cm^-3,,,Se,
Systematic_Generation,,5e+18,InAs:Se_5.0e+18,,Inherited,,,,,,,,,DOPED_003997,,,Doped_Semiconductor,,,InAs_Se,InAs + Se @ 5.0e+18 cm^-3,,,Se,
Systematic_Generation,,1e+19,InAs:Se_1.0e+19,,Inherited,,,,,,,,,DOPED_003998,,,Doped_Semiconductor,,,InAs_Se,InAs + Se @ 1.0e+19 cm^-3,,,Se,
Systematic_Generation,,5e+19,InAs:Se_5.0e+19,,Inherited,,,,,,,,,DOPED_003999,,,Doped_Semiconductor,,,InAs_Se,InAs + Se @ 5.0e+19 cm^-3,,,Se,
Systematic_Generation,,1e+20,InAs:Se_1.0e+20,,Inherited,,,,,,,,,DOPED_004000,,,Doped_Semiconductor,,,InAs_Se,InAs + Se @ 1.0e+20 cm^-3,,,Se,
Systematic_Generation,,1e+21,InAs:Se_1.0e+21,,Inherited,,,,,,,,,DOPED_004001,,,Doped_Semiconductor,,,InAs_Se,InAs + Se @ 1.0e+21 cm^-3,,,Se,
Systematic_Generation,,1000000000000000.0,InAs:Te_1.0e+15,,Inherited,,,,,,,,,DOPED_004002,,,Doped_Semiconductor,,,InAs_Te,InAs + Te @ 1.0e+15 cm^-3,,,Te,
Systematic_Generation,,5000000000000000.0,InAs:Te_5.0e+15,,Inherited,,,,,,,,,DOPED_004003,,,Doped_Semiconductor,,,InAs_Te,InAs + Te @ 5.0e+15 cm^-3,,,Te,
Systematic_Generation,,1e+16,InAs:Te_1.0e+16,,Inherited,,,,,,,,,DOPED_004004,,,Doped_Semiconductor,,,InAs_Te,InAs + Te @ 1.0e+16 cm^-3,,,Te,
Systematic_Generation,,5e+16,InAs:Te_5.0e+16,,Inherited,,,,,,,,,DOPED_004005,,,Doped_Semiconductor,,,InAs_Te,InAs + Te @ 5.0e+16 cm^-3,,,Te,
Systematic_Generation,,1e+17,InAs:Te_1.0e+17,,Inherited,,,,,,,,,DOPED_004006,,,Doped_Semiconductor,,,InAs_Te,InAs + Te @ 1.0e+17 cm^-3,,,Te,
Systematic_Generation,,5e+17,InAs:Te_5.0e+17,,Inherited,,,,,,,,,DOPED_004007,,,Doped_Semiconductor,,,InAs_Te,InAs + Te @ 5.0e+17 cm^-3,,,Te,
Systematic_Generation,,1e+18,InAs:Te_1.0e+18,,Inherited,,,,,,,,,DOPED_004008,,,Doped_Semiconductor,,,InAs_Te,InAs + Te @ 1.0e+18 cm^-3,,,Te,
Systematic_Generation,,5e+18,InAs:Te_5.0e+18,,Inherited,,,,,,,,,DOPED_004009,,,Doped_Semiconductor,,,InAs_Te,InAs + Te @ 5.0e+18 cm^-3,,,Te,
Systematic_Generation,,1e+19,InAs:Te_1.0e+19,,Inherited,,,,,,,,,DOPED_004010,,,Doped_Semiconductor,,,InAs_Te,InAs + Te @ 1.0e+19 cm^-3,,,Te,
Systematic_Generation,,5e+19,InAs:Te_5.0e+19,,Inherited,,,,,,,,,DOPED_004011,,,Doped_Semiconductor,,,InAs_Te,InAs + Te @ 5.0e+19 cm^-3,,,Te,
Systematic_Generation,,1e+20,InAs:Te_1.0e+20,,Inherited,,,,,,,,,DOPED_004012,,,Doped_Semiconductor,,,InAs_Te,InAs + Te @ 1.0e+20 cm^-3,,,Te,
Systematic_Generation,,1e+21,InAs:Te_1.0e+21,,Inherited,,,,,,,,,DOPED_004013,,,Doped_Semiconductor,,,InAs_Te,InAs + Te @ 1.0e+21 cm^-3,,,Te,
Systematic_Generation,,1000000000000000.0,InSb:B_1.0e+15,,Inherited,,,,,,,,,DOPED_004014,,,Doped_Semiconductor,,,InSb_B,InSb + B @ 1.0e+15 cm^-3,,,B,
Systematic_Generation,,5000000000000000.0,InSb:B_5.0e+15,,Inherited,,,,,,,,,DOPED_004015,,,Doped_Semiconductor,,,InSb_B,InSb + B @ 5.0e+15 cm^-3,,,B,
Systematic_Generation,,1e+16,InSb:B_1.0e+16,,Inherited,,,,,,,,,DOPED_004016,,,Doped_Semiconductor,,,InSb_B,InSb + B @ 1.0e+16 cm^-3,,,B,
Systematic_Generation,,5e+16,InSb:B_5.0e+16,,Inherited,,,,,,,,,DOPED_004017,,,Doped_Semiconductor,,,InSb_B,InSb + B @ 5.0e+16 cm^-3,,,B,
Systematic_Generation,,1e+17,InSb:B_1.0e+17,,Inherited,,,,,,,,,DOPED_004018,,,Doped_Semiconductor,,,InSb_B,InSb + B @ 1.0e+17 cm^-3,,,B,
Systematic_Generation,,5e+17,InSb:B_5.0e+17,,Inherited,,,,,,,,,DOPED_004019,,,Doped_Semiconductor,,,InSb_B,InSb + B @ 5.0e+17 cm^-3,,,B,
Systematic_Generation,,1e+18,InSb:B_1.0e+18,,Inherited,,,,,,,,,DOPED_004020,,,Doped_Semiconductor,,,InSb_B,InSb + B @ 1.0e+18 cm^-3,,,B,
Systematic_Generation,,5e+18,InSb:B_5.0e+18,,Inherited,,,,,,,,,DOPED_004021,,,Doped_Semiconductor,,,InSb_B,InSb + B @ 5.0e+18 cm^-3,,,B,
Systematic_Generation,,1e+19,InSb:B_1.0e+19,,Inherited,,,,,,,,,DOPED_004022,,,Doped_Semiconductor,,,InSb_B,InSb + B @ 1.0e+19 cm^-3,,,B,
Systematic_Generation,,5e+19,InSb:B_5.0e+19,,Inherited,,,,,,,,,DOPED_004023,,,Doped_Semiconductor,,,InSb_B,InSb + B @ 5.0e+19 cm^-3,,,B,
Systematic_Generation,,1e+20,InSb:B_1.0e+20,,Inherited,,,,,,,,,DOPED_004024,,,Doped_Semiconductor,,,InSb_B,InSb + B @ 1.0e+20 cm^-3,,,B,
Systematic_Generation,,1e+21,InSb:B_1.0e+21,,Inherited,,,,,,,,,DOPED_004025,,,Doped_Semiconductor,,,InSb_B,InSb + B @ 1.0e+21 cm^-3,,,B,
Systematic_Generation,,1000000000000000.0,InSb:P_1.0e+15,,Inherited,,,,,,,,,DOPED_004026,,,Doped_Semiconductor,,,InSb_P,InSb + P @ 1.0e+15 cm^-3,,,P,
Systematic_Generation,,5000000000000000.0,InSb:P_5.0e+15,,Inherited,,,,,,,,,DOPED_004027,,,Doped_Semiconductor,,,InSb_P,InSb + P @ 5.0e+15 cm^-3,,,P,
Systematic_Generation,,1e+16,InSb:P_1.0e+16,,Inherited,,,,,,,,,DOPED_004028,,,Doped_Semiconductor,,,InSb_P,InSb + P @ 1.0e+16 cm^-3,,,P,
Systematic_Generation,,5e+16,InSb:P_5.0e+16,,Inherited,,,,,,,,,DOPED_004029,,,Doped_Semiconductor,,,InSb_P,InSb + P @ 5.0e+16 cm^-3,,,P,
Systematic_Generation,,1e+17,InSb:P_1.0e+17,,Inherited,,,,,,,,,DOPED_004030,,,Doped_Semiconductor,,,InSb_P,InSb + P @ 1.0e+17 cm^-3,,,P,
Systematic_Generation,,5e+17,InSb:P_5.0e+17,,Inherited,,,,,,,,,DOPED_004031,,,Doped_Semiconductor,,,InSb_P,InSb + P @ 5.0e+17 cm^-3,,,P,
Systematic_Generation,,1e+18,InSb:P_1.0e+18,,Inherited,,,,,,,,,DOPED_004032,,,Doped_Semiconductor,,,InSb_P,InSb + P @ 1.0e+18 cm^-3,,,P,
Systematic_Generation,,5e+18,InSb:P_5.0e+18,,Inherited,,,,,,,,,DOPED_004033,,,Doped_Semiconductor,,,InSb_P,InSb + P @ 5.0e+18 cm^-3,,,P,
Systematic_Generation,,1e+19,InSb:P_1.0e+19,,Inherited,,,,,,,,,DOPED_004034,,,Doped_Semiconductor,,,InSb_P,InSb + P @ 1.0e+19 cm^-3,,,P,
Systematic_Generation,,5e+19,InSb:P_5.0e+19,,Inherited,,,,,,,,,DOPED_004035,,,Doped_Semiconductor,,,InSb_P,InSb + P @ 5.0e+19 cm^-3,,,P,
Systematic_Generation,,1e+20,InSb:P_1.0e+20,,Inherited,,,,,,,,,DOPED_004036,,,Doped_Semiconductor,,,InSb_P,InSb + P @ 1.0e+20 cm^-3,,,P,
Systematic_Generation,,1e+21,InSb:P_1.0e+21,,Inherited,,,,,,,,,DOPED_004037,,,Doped_Semiconductor,,,InSb_P,InSb + P @ 1.0e+21 cm^-3,,,P,
Systematic_Generation,,1000000000000000.0,InSb:As_1.0e+15,,Inherited,,,,,,,,,DOPED_004038,,,Doped_Semiconductor,,,InSb_As,InSb + As @ 1.0e+15 cm^-3,,,As,
Systematic_Generation,,5000000000000000.0,InSb:As_5.0e+15,,Inherited,,,,,,,,,DOPED_004039,,,Doped_Semiconductor,,,InSb_As,InSb + As @ 5.0e+15 cm^-3,,,As,
Systematic_Generation,,1e+16,InSb:As_1.0e+16,,Inherited,,,,,,,,,DOPED_004040,,,Doped_Semiconductor,,,InSb_As,InSb + As @ 1.0e+16 cm^-3,,,As,
Systematic_Generation,,5e+16,InSb:As_5.0e+16,,Inherited,,,,,,,,,DOPED_004041,,,Doped_Semiconductor,,,InSb_As,InSb + As @ 5.0e+16 cm^-3,,,As,
Systematic_Generation,,1e+17,InSb:As_1.0e+17,,Inherited,,,,,,,,,DOPED_004042,,,Doped_Semiconductor,,,InSb_As,InSb + As @ 1.0e+17 cm^-3,,,As,
Systematic_Generation,,5e+17,InSb:As_5.0e+17,,Inherited,,,,,,,,,DOPED_004043,,,Doped_Semiconductor,,,InSb_As,InSb + As @ 5.0e+17 cm^-3,,,As,
Systematic_Generation,,1e+18,InSb:As_1.0e+18,,Inherited,,,,,,,,,DOPED_004044,,,Doped_Semiconductor,,,InSb_As,InSb + As @ 1.0e+18 cm^-3,,,As,
Systematic_Generation,,5e+18,InSb:As_5.0e+18,,Inherited,,,,,,,,,DOPED_004045,,,Doped_Semiconductor,,,InSb_As,InSb + As @ 5.0e+18 cm^-3,,,As,
Systematic_Generation,,1e+19,InSb:As_1.0e+19,,Inherited,,,,,,,,,DOPED_004046,,,Doped_Semiconductor,,,InSb_As,InSb + As @ 1.0e+19 cm^-3,,,As,
Systematic_Generation,,5e+19,InSb:As_5.0e+19,,Inherited,,,,,,,,,DOPED_004047,,,Doped_Semiconductor,,,InSb_As,InSb + As @ 5.0e+19 cm^-3,,,As,
Systematic_Generation,,1e+20,InSb:As_1.0e+20,,Inherited,,,,,,,,,DOPED_004048,,,Doped_Semiconductor,,,InSb_As,InSb + As @ 1.0e+20 cm^-3,,,As,
Systematic_Generation,,1e+21,InSb:As_1.0e+21,,Inherited,,,,,,,,,DOPED_004049,,,Doped_Semiconductor,,,InSb_As,InSb + As @ 1.0e+21 cm^-3,,,As,
Systematic_Generation,,1000000000000000.0,InSb:Sb_1.0e+15,,Inherited,,,,,,,,,DOPED_004050,,,Doped_Semiconductor,,,InSb_Sb,InSb + Sb @ 1.0e+15 cm^-3,,,Sb,
Systematic_Generation,,5000000000000000.0,InSb:Sb_5.0e+15,,Inherited,,,,,,,,,DOPED_004051,,,Doped_Semiconductor,,,InSb_Sb,InSb + Sb @ 5.0e+15 cm^-3,,,Sb,
Systematic_Generation,,1e+16,InSb:Sb_1.0e+16,,Inherited,,,,,,,,,DOPED_004052,,,Doped_Semiconductor,,,InSb_Sb,InSb + Sb @ 1.0e+16 cm^-3,,,Sb,
Systematic_Generation,,5e+16,InSb:Sb_5.0e+16,,Inherited,,,,,,,,,DOPED_004053,,,Doped_Semiconductor,,,InSb_Sb,InSb + Sb @ 5.0e+16 cm^-3,,,Sb,
Systematic_Generation,,1e+17,InSb:Sb_1.0e+17,,Inherited,,,,,,,,,DOPED_004054,,,Doped_Semiconductor,,,InSb_Sb,InSb + Sb @ 1.0e+17 cm^-3,,,Sb,
Systematic_Generation,,5e+17,InSb:Sb_5.0e+17,,Inherited,,,,,,,,,DOPED_004055,,,Doped_Semiconductor,,,InSb_Sb,InSb + Sb @ 5.0e+17 cm^-3,,,Sb,
Systematic_Generation,,1e+18,InSb:Sb_1.0e+18,,Inherited,,,,,,,,,DOPED_004056,,,Doped_Semiconductor,,,InSb_Sb,InSb + Sb @ 1.0e+18 cm^-3,,,Sb,
Systematic_Generation,,5e+18,InSb:Sb_5.0e+18,,Inherited,,,,,,,,,DOPED_004057,,,Doped_Semiconductor,,,InSb_Sb,InSb + Sb @ 5.0e+18 cm^-3,,,Sb,
Systematic_Generation,,1e+19,InSb:Sb_1.0e+19,,Inherited,,,,,,,,,DOPED_004058,,,Doped_Semiconductor,,,InSb_Sb,InSb + Sb @ 1.0e+19 cm^-3,,,Sb,
Systematic_Generation,,5e+19,InSb:Sb_5.0e+19,,Inherited,,,,,,,,,DOPED_004059,,,Doped_Semiconductor,,,InSb_Sb,InSb + Sb @ 5.0e+19 cm^-3,,,Sb,
Systematic_Generation,,1e+20,InSb:Sb_1.0e+20,,Inherited,,,,,,,,,DOPED_004060,,,Doped_Semiconductor,,,InSb_Sb,InSb + Sb @ 1.0e+20 cm^-3,,,Sb,
Systematic_Generation,,1e+21,InSb:Sb_1.0e+21,,Inherited,,,,,,,,,DOPED_004061,,,Doped_Semiconductor,,,InSb_Sb,InSb + Sb @ 1.0e+21 cm^-3,,,Sb,
Systematic_Generation,,1000000000000000.0,InSb:N_1.0e+15,,Inherited,,,,,,,,,DOPED_004062,,,Doped_Semiconductor,,,InSb_N,InSb + N @ 1.0e+15 cm^-3,,,N,
Systematic_Generation,,5000000000000000.0,InSb:N_5.0e+15,,Inherited,,,,,,,,,DOPED_004063,,,Doped_Semiconductor,,,InSb_N,InSb + N @ 5.0e+15 cm^-3,,,N,
Systematic_Generation,,1e+16,InSb:N_1.0e+16,,Inherited,,,,,,,,,DOPED_004064,,,Doped_Semiconductor,,,InSb_N,InSb + N @ 1.0e+16 cm^-3,,,N,
Systematic_Generation,,5e+16,InSb:N_5.0e+16,,Inherited,,,,,,,,,DOPED_004065,,,Doped_Semiconductor,,,InSb_N,InSb + N @ 5.0e+16 cm^-3,,,N,
Systematic_Generation,,1e+17,InSb:N_1.0e+17,,Inherited,,,,,,,,,DOPED_004066,,,Doped_Semiconductor,,,InSb_N,InSb + N @ 1.0e+17 cm^-3,,,N,
Systematic_Generation,,5e+17,InSb:N_5.0e+17,,Inherited,,,,,,,,,DOPED_004067,,,Doped_Semiconductor,,,InSb_N,InSb + N @ 5.0e+17 cm^-3,,,N,
Systematic_Generation,,1e+18,InSb:N_1.0e+18,,Inherited,,,,,,,,,DOPED_004068,,,Doped_Semiconductor,,,InSb_N,InSb + N @ 1.0e+18 cm^-3,,,N,
Systematic_Generation,,5e+18,InSb:N_5.0e+18,,Inherited,,,,,,,,,DOPED_004069,,,Doped_Semiconductor,,,InSb_N,InSb + N @ 5.0e+18 cm^-3,,,N,
Systematic_Generation,,1e+19,InSb:N_1.0e+19,,Inherited,,,,,,,,,DOPED_004070,,,Doped_Semiconductor,,,InSb_N,InSb + N @ 1.0e+19 cm^-3,,,N,
Systematic_Generation,,5e+19,InSb:N_5.0e+19,,Inherited,,,,,,,,,DOPED_004071,,,Doped_Semiconductor,,,InSb_N,InSb + N @ 5.0e+19 cm^-3,,,N,
Systematic_Generation,,1e+20,InSb:N_1.0e+20,,Inherited,,,,,,,,,DOPED_004072,,,Doped_Semiconductor,,,InSb_N,InSb + N @ 1.0e+20 cm^-3,,,N,
Systematic_Generation,,1e+21,InSb:N_1.0e+21,,Inherited,,,,,,,,,DOPED_004073,,,Doped_Semiconductor,,,InSb_N,InSb + N @ 1.0e+21 cm^-3,,,N,
Systematic_Generation,,1000000000000000.0,InSb:Al_1.0e+15,,Inherited,,,,,,,,,DOPED_004074,,,Doped_Semiconductor,,,InSb_Al,InSb + Al @ 1.0e+15 cm^-3,,,Al,
Systematic_Generation,,5000000000000000.0,InSb:Al_5.0e+15,,Inherited,,,,,,,,,DOPED_004075,,,Doped_Semiconductor,,,InSb_Al,InSb + Al @ 5.0e+15 cm^-3,,,Al,
Systematic_Generation,,1e+16,InSb:Al_1.0e+16,,Inherited,,,,,,,,,DOPED_004076,,,Doped_Semiconductor,,,InSb_Al,InSb + Al @ 1.0e+16 cm^-3,,,Al,
Systematic_Generation,,5e+16,InSb:Al_5.0e+16,,Inherited,,,,,,,,,DOPED_004077,,,Doped_Semiconductor,,,InSb_Al,InSb + Al @ 5.0e+16 cm^-3,,,Al,
Systematic_Generation,,1e+17,InSb:Al_1.0e+17,,Inherited,,,,,,,,,DOPED_004078,,,Doped_Semiconductor,,,InSb_Al,InSb + Al @ 1.0e+17 cm^-3,,,Al,
Systematic_Generation,,5e+17,InSb:Al_5.0e+17,,Inherited,,,,,,,,,DOPED_004079,,,Doped_Semiconductor,,,InSb_Al,InSb + Al @ 5.0e+17 cm^-3,,,Al,
Systematic_Generation,,1e+18,InSb:Al_1.0e+18,,Inherited,,,,,,,,,DOPED_004080,,,Doped_Semiconductor,,,InSb_Al,InSb + Al @ 1.0e+18 cm^-3,,,Al,
Systematic_Generation,,5e+18,InSb:Al_5.0e+18,,Inherited,,,,,,,,,DOPED_004081,,,Doped_Semiconductor,,,InSb_Al,InSb + Al @ 5.0e+18 cm^-3,,,Al,
Systematic_Generation,,1e+19,InSb:Al_1.0e+19,,Inherited,,,,,,,,,DOPED_004082,,,Doped_Semiconductor,,,InSb_Al,InSb + Al @ 1.0e+19 cm^-3,,,Al,
Systematic_Generation,,5e+19,InSb:Al_5.0e+19,,Inherited,,,,,,,,,DOPED_004083,,,Doped_Semiconductor,,,InSb_Al,InSb + Al @ 5.0e+19 cm^-3,,,Al,
Systematic_Generation,,1e+20,InSb:Al_1.0e+20,,Inherited,,,,,,,,,DOPED_004084,,,Doped_Semiconductor,,,InSb_Al,InSb + Al @ 1.0e+20 cm^-3,,,Al,
Systematic_Generation,,1e+21,InSb:Al_1.0e+21,,Inherited,,,,,,,,,DOPED_004085,,,Doped_Semiconductor,,,InSb_Al,InSb + Al @ 1.0e+21 cm^-3,,,Al,
Systematic_Generation,,1000000000000000.0,InSb:Ga_1.0e+15,,Inherited,,,,,,,,,DOPED_004086,,,Doped_Semiconductor,,,InSb_Ga,InSb + Ga @ 1.0e+15 cm^-3,,,Ga,
Systematic_Generation,,5000000000000000.0,InSb:Ga_5.0e+15,,Inherited,,,,,,,,,DOPED_004087,,,Doped_Semiconductor,,,InSb_Ga,InSb + Ga @ 5.0e+15 cm^-3,,,Ga,
Systematic_Generation,,1e+16,InSb:Ga_1.0e+16,,Inherited,,,,,,,,,DOPED_004088,,,Doped_Semiconductor,,,InSb_Ga,InSb + Ga @ 1.0e+16 cm^-3,,,Ga,
Systematic_Generation,,5e+16,InSb:Ga_5.0e+16,,Inherited,,,,,,,,,DOPED_004089,,,Doped_Semiconductor,,,InSb_Ga,InSb + Ga @ 5.0e+16 cm^-3,,,Ga,
Systematic_Generation,,1e+17,InSb:Ga_1.0e+17,,Inherited,,,,,,,,,DOPED_004090,,,Doped_Semiconductor,,,InSb_Ga,InSb + Ga @ 1.0e+17 cm^-3,,,Ga,
Systematic_Generation,,5e+17,InSb:Ga_5.0e+17,,Inherited,,,,,,,,,DOPED_004091,,,Doped_Semiconductor,,,InSb_Ga,InSb + Ga @ 5.0e+17 cm^-3,,,Ga,
Systematic_Generation,,1e+18,InSb:Ga_1.0e+18,,Inherited,,,,,,,,,DOPED_004092,,,Doped_Semiconductor,,,InSb_Ga,InSb + Ga @ 1.0e+18 cm^-3,,,Ga,
Systematic_Generation,,5e+18,InSb:Ga_5.0e+18,,Inherited,,,,,,,,,DOPED_004093,,,Doped_Semiconductor,,,InSb_Ga,InSb + Ga @ 5.0e+18 cm^-3,,,Ga,
Systematic_Generation,,1e+19,InSb:Ga_1.0e+19,,Inherited,,,,,,,,,DOPED_004094,,,Doped_Semiconductor,,,InSb_Ga,InSb + Ga @ 1.0e+19 cm^-3,,,Ga,
Systematic_Generation,,5e+19,InSb:Ga_5.0e+19,,Inherited,,,,,,,,,DOPED_004095,,,Doped_Semiconductor,,,InSb_Ga,InSb + Ga @ 5.0e+19 cm^-3,,,Ga,
Systematic_Generation,,1e+20,InSb:Ga_1.0e+20,,Inherited,,,,,,,,,DOPED_004096,,,Doped_Semiconductor,,,InSb_Ga,InSb + Ga @ 1.0e+20 cm^-3,,,Ga,
Systematic_Generation,,1e+21,InSb:Ga_1.0e+21,,Inherited,,,,,,,,,DOPED_004097,,,Doped_Semiconductor,,,InSb_Ga,InSb + Ga @ 1.0e+21 cm^-3,,,Ga,