source,n_elements,doping_concentration,name,termination,space_group,doping_level,volume_fraction,weight_percent,lattice_c,temperature,reinforcement,matrix,layers,material_id,molecular_weight,deposition_method,type,lattice_b,pdi,formula,composition,lattice_a,thickness_nm,dopant,substrate
Systematic_Generation,,,Li2CrCoO6,,P21/n,,,,7.519,,,,,DPERO_001396,,,Double_Perovskite,8.036,,Li2CrCoO6,"Li:2, Cr:1, Co:1, O:6",8.2,,,
Systematic_Generation,,,Li2MoWO6,,R-3,,,,7.859,,,,,DPERO_001397,,,Double_Perovskite,7.716,,Li2MoWO6,"Li:2, Mo:1, W:1, O:6",7.915,,,
Systematic_Generation,,,Li2MoMnO6,,Fm-3m,,,,7.901,,,,,DPERO_001398,,,Double_Perovskite,8.341,,Li2MoMnO6,"Li:2, Mo:1, Mn:1, O:6",8.171,,,
Systematic_Generation,,,Li2MoFeO6,,P21/n,,,,8.078,,,,,DPERO_001399,,,Double_Perovskite,7.859,,Li2MoFeO6,"Li:2, Mo:1, Fe:1, O:6",7.514,,,
Systematic_Generation,,,Li2MoCoO6,,P21/n,,,,8.209,,,,,DPERO_001400,,,Double_Perovskite,8.173,,Li2MoCoO6,"Li:2, Mo:1, Co:1, O:6",8.097,,,
Systematic_Generation,,,Na2TiWO6,,Fm-3m,,,,7.788,,,,,DPERO_001401,,,Double_Perovskite,8.368,,Na2TiWO6,"Na:2, Ti:1, W:1, O:6",7.766,,,
Systematic_Generation,,,Na2TiMnO6,,R-3,,,,7.881,,,,,DPERO_001402,,,Double_Perovskite,8.072,,Na2TiMnO6,"Na:2, Ti:1, Mn:1, O:6",7.707,,,
Systematic_Generation,,,Na2TiFeO6,,R-3,,,,7.922,,,,,DPERO_001403,,,Double_Perovskite,8.147,,Na2TiFeO6,"Na:2, Ti:1, Fe:1, O:6",8.336,,,
Systematic_Generation,,,Na2TiCoO6,,Fm-3m,,,,8.44,,,,,DPERO_001404,,,Double_Perovskite,8.045,,Na2TiCoO6,"Na:2, Ti:1, Co:1, O:6",8.474,,,
Systematic_Generation,,,Na2ZrWO6,,Fm-3m,,,,8.359,,,,,DPERO_001405,,,Double_Perovskite,7.721,,Na2ZrWO6,"Na:2, Zr:1, W:1, O:6",8.06,,,
Systematic_Generation,,,Na2ZrMnO6,,Fm-3m,,,,8.364,,,,,DPERO_001406,,,Double_Perovskite,7.712,,Na2ZrMnO6,"Na:2, Zr:1, Mn:1, O:6",7.682,,,
Systematic_Generation,,,Na2ZrFeO6,,Fm-3m,,,,7.752,,,,,DPERO_001407,,,Double_Perovskite,7.708,,Na2ZrFeO6,"Na:2, Zr:1, Fe:1, O:6",7.944,,,
Systematic_Generation,,,Na2ZrCoO6,,P21/n,,,,8.136,,,,,DPERO_001408,,,Double_Perovskite,7.884,,Na2ZrCoO6,"Na:2, Zr:1, Co:1, O:6",8.328,,,
Systematic_Generation,,,Na2HfWO6,,R-3,,,,8.373,,,,,DPERO_001409,,,Double_Perovskite,7.837,,Na2HfWO6,"Na:2, Hf:1, W:1, O:6",7.554,,,
Systematic_Generation,,,Na2HfMnO6,,Fm-3m,,,,7.94,,,,,DPERO_001410,,,Double_Perovskite,7.849,,Na2HfMnO6,"Na:2, Hf:1, Mn:1, O:6",8.08,,,
Systematic_Generation,,,Na2HfFeO6,,P21/n,,,,8.021,,,,,DPERO_001411,,,Double_Perovskite,8.015,,Na2HfFeO6,"Na:2, Hf:1, Fe:1, O:6",7.921,,,
Systematic_Generation,,,Na2HfCoO6,,Fm-3m,,,,7.886,,,,,DPERO_001412,,,Double_Perovskite,8.344,,Na2HfCoO6,"Na:2, Hf:1, Co:1, O:6",7.68,,,
Systematic_Generation,,,Na2VWO6,,P21/n,,,,7.597,,,,,DPERO_001413,,,Double_Perovskite,7.674,,Na2VWO6,"Na:2, V:1, W:1, O:6",8.176,,,
Systematic_Generation,,,Na2VMnO6,,Fm-3m,,,,7.578,,,,,DPERO_001414,,,Double_Perovskite,7.852,,Na2VMnO6,"Na:2, V:1, Mn:1, O:6",7.851,,,
Systematic_Generation,,,Na2VFeO6,,R-3,,,,8.147,,,,,DPERO_001415,,,Double_Perovskite,8.315,,Na2VFeO6,"Na:2, V:1, Fe:1, O:6",8.173,,,
Systematic_Generation,,,Na2VCoO6,,R-3,,,,7.836,,,,,DPERO_001416,,,Double_Perovskite,7.843,,Na2VCoO6,"Na:2, V:1, Co:1, O:6",7.898,,,
Systematic_Generation,,,Na2NbWO6,,R-3,,,,7.506,,,,,DPERO_001417,,,Double_Perovskite,8.104,,Na2NbWO6,"Na:2, Nb:1, W:1, O:6",8.298,,,
Systematic_Generation,,,Na2NbMnO6,,R-3,,,,8.213,,,,,DPERO_001418,,,Double_Perovskite,8.036,,Na2NbMnO6,"Na:2, Nb:1, Mn:1, O:6",8.441,,,
Systematic_Generation,,,Na2NbFeO6,,Fm-3m,,,,8.314,,,,,DPERO_001419,,,Double_Perovskite,8.286,,Na2NbFeO6,"Na:2, Nb:1, Fe:1, O:6",8.122,,,
Systematic_Generation,,,Na2NbCoO6,,Fm-3m,,,,8.491,,,,,DPERO_001420,,,Double_Perovskite,8.151,,Na2NbCoO6,"Na:2, Nb:1, Co:1, O:6",8.14,,,
Systematic_Generation,,,Na2TaWO6,,P21/n,,,,7.88,,,,,DPERO_001421,,,Double_Perovskite,7.551,,Na2TaWO6,"Na:2, Ta:1, W:1, O:6",7.979,,,
Systematic_Generation,,,Na2TaMnO6,,Fm-3m,,,,8.251,,,,,DPERO_001422,,,Double_Perovskite,8.376,,Na2TaMnO6,"Na:2, Ta:1, Mn:1, O:6",8.362,,,
Systematic_Generation,,,Na2TaFeO6,,Fm-3m,,,,8.126,,,,,DPERO_001423,,,Double_Perovskite,8.351,,Na2TaFeO6,"Na:2, Ta:1, Fe:1, O:6",7.982,,,
Systematic_Generation,,,Na2TaCoO6,,P21/n,,,,7.606,,,,,DPERO_001424,,,Double_Perovskite,7.793,,Na2TaCoO6,"Na:2, Ta:1, Co:1, O:6",7.656,,,
Systematic_Generation,,,Na2CrWO6,,P21/n,,,,7.858,,,,,DPERO_001425,,,Double_Perovskite,8.169,,Na2CrWO6,"Na:2, Cr:1, W:1, O:6",8.14,,,
Systematic_Generation,,,Na2CrMnO6,,Fm-3m,,,,8.26,,,,,DPERO_001426,,,Double_Perovskite,8.316,,Na2CrMnO6,"Na:2, Cr:1, Mn:1, O:6",7.971,,,
Systematic_Generation,,,Na2CrFeO6,,P21/n,,,,7.597,,,,,DPERO_001427,,,Double_Perovskite,8.051,,Na2CrFeO6,"Na:2, Cr:1, Fe:1, O:6",7.824,,,
Systematic_Generation,,,Na2CrCoO6,,P21/n,,,,7.739,,,,,DPERO_001428,,,Double_Perovskite,7.955,,Na2CrCoO6,"Na:2, Cr:1, Co:1, O:6",8.396,,,
Systematic_Generation,,,Na2MoWO6,,P21/n,,,,7.85,,,,,DPERO_001429,,,Double_Perovskite,8.123,,Na2MoWO6,"Na:2, Mo:1, W:1, O:6",8.155,,,
Systematic_Generation,,,Na2MoMnO6,,R-3,,,,8.182,,,,,DPERO_001430,,,Double_Perovskite,7.814,,Na2MoMnO6,"Na:2, Mo:1, Mn:1, O:6",7.538,,,
Systematic_Generation,,,Na2MoFeO6,,R-3,,,,7.783,,,,,DPERO_001431,,,Double_Perovskite,8.27,,Na2MoFeO6,"Na:2, Mo:1, Fe:1, O:6",8.286,,,
Systematic_Generation,,,Na2MoCoO6,,P21/n,,,,8.275,,,,,DPERO_001432,,,Double_Perovskite,7.761,,Na2MoCoO6,"Na:2, Mo:1, Co:1, O:6",7.652,,,
Systematic_Generation,,,K2TiWO6,,R-3,,,,7.969,,,,,DPERO_001433,,,Double_Perovskite,7.96,,K2TiWO6,"K:2, Ti:1, W:1, O:6",8.134,,,
Systematic_Generation,,,K2TiMnO6,,P21/n,,,,8.34,,,,,DPERO_001434,,,Double_Perovskite,7.919,,K2TiMnO6,"K:2, Ti:1, Mn:1, O:6",7.724,,,
Systematic_Generation,,,K2TiFeO6,,P21/n,,,,7.867,,,,,DPERO_001435,,,Double_Perovskite,8.315,,K2TiFeO6,"K:2, Ti:1, Fe:1, O:6",7.919,,,
Systematic_Generation,,,K2TiCoO6,,P21/n,,,,7.787,,,,,DPERO_001436,,,Double_Perovskite,8.429,,K2TiCoO6,"K:2, Ti:1, Co:1, O:6",7.995,,,
Systematic_Generation,,,K2ZrWO6,,Fm-3m,,,,7.898,,,,,DPERO_001437,,,Double_Perovskite,7.973,,K2ZrWO6,"K:2, Zr:1, W:1, O:6",7.595,,,
Systematic_Generation,,,K2ZrMnO6,,R-3,,,,7.514,,,,,DPERO_001438,,,Double_Perovskite,8.131,,K2ZrMnO6,"K:2, Zr:1, Mn:1, O:6",8.119,,,
Systematic_Generation,,,K2ZrFeO6,,Fm-3m,,,,8.145,,,,,DPERO_001439,,,Double_Perovskite,8.266,,K2ZrFeO6,"K:2, Zr:1, Fe:1, O:6",8.363,,,
Systematic_Generation,,,K2ZrCoO6,,P21/n,,,,7.648,,,,,DPERO_001440,,,Double_Perovskite,7.87,,K2ZrCoO6,"K:2, Zr:1, Co:1, O:6",8.352,,,
Systematic_Generation,,,K2HfWO6,,R-3,,,,7.501,,,,,DPERO_001441,,,Double_Perovskite,7.87,,K2HfWO6,"K:2, Hf:1, W:1, O:6",7.671,,,
Systematic_Generation,,,K2HfMnO6,,P21/n,,,,8.048,,,,,DPERO_001442,,,Double_Perovskite,7.921,,K2HfMnO6,"K:2, Hf:1, Mn:1, O:6",7.666,,,
Systematic_Generation,,,K2HfFeO6,,P21/n,,,,8.25,,,,,DPERO_001443,,,Double_Perovskite,7.736,,K2HfFeO6,"K:2, Hf:1, Fe:1, O:6",7.979,,,
Systematic_Generation,,,K2HfCoO6,,Fm-3m,,,,8.167,,,,,DPERO_001444,,,Double_Perovskite,7.629,,K2HfCoO6,"K:2, Hf:1, Co:1, O:6",8.287,,,
Systematic_Generation,,,K2VWO6,,R-3,,,,7.678,,,,,DPERO_001445,,,Double_Perovskite,8.265,,K2VWO6,"K:2, V:1, W:1, O:6",7.638,,,
Systematic_Generation,,,K2VMnO6,,P21/n,,,,7.853,,,,,DPERO_001446,,,Double_Perovskite,7.733,,K2VMnO6,"K:2, V:1, Mn:1, O:6",8.353,,,
Systematic_Generation,,,K2VFeO6,,P21/n,,,,8.148,,,,,DPERO_001447,,,Double_Perovskite,7.72,,K2VFeO6,"K:2, V:1, Fe:1, O:6",7.865,,,
Systematic_Generation,,,K2VCoO6,,R-3,,,,7.833,,,,,DPERO_001448,,,Double_Perovskite,8.42,,K2VCoO6,"K:2, V:1, Co:1, O:6",7.579,,,
Systematic_Generation,,,K2NbWO6,,R-3,,,,8.458,,,,,DPERO_001449,,,Double_Perovskite,7.723,,K2NbWO6,"K:2, Nb:1, W:1, O:6",8.402,,,
Systematic_Generation,,,K2NbMnO6,,Fm-3m,,,,8.402,,,,,DPERO_001450,,,Double_Perovskite,8.421,,K2NbMnO6,"K:2, Nb:1, Mn:1, O:6",7.518,,,
Systematic_Generation,,,K2NbFeO6,,P21/n,,,,8.457,,,,,DPERO_001451,,,Double_Perovskite,8.236,,K2NbFeO6,"K:2, Nb:1, Fe:1, O:6",7.551,,,
Systematic_Generation,,,K2NbCoO6,,Fm-3m,,,,8.433,,,,,DPERO_001452,,,Double_Perovskite,7.969,,K2NbCoO6,"K:2, Nb:1, Co:1, O:6",7.557,,,
Systematic_Generation,,,K2TaWO6,,P21/n,,,,7.931,,,,,DPERO_001453,,,Double_Perovskite,7.585,,K2TaWO6,"K:2, Ta:1, W:1, O:6",8.18,,,
Systematic_Generation,,,K2TaMnO6,,R-3,,,,7.938,,,,,DPERO_001454,,,Double_Perovskite,8.434,,K2TaMnO6,"K:2, Ta:1, Mn:1, O:6",8.452,,,
Systematic_Generation,,,K2TaFeO6,,P21/n,,,,8.497,,,,,DPERO_001455,,,Double_Perovskite,8.481,,K2TaFeO6,"K:2, Ta:1, Fe:1, O:6",7.597,,,
Systematic_Generation,,,K2TaCoO6,,R-3,,,,7.783,,,,,DPERO_001456,,,Double_Perovskite,7.609,,K2TaCoO6,"K:2, Ta:1, Co:1, O:6",8.097,,,
Systematic_Generation,,,K2CrWO6,,P21/n,,,,8.435,,,,,DPERO_001457,,,Double_Perovskite,7.736,,K2CrWO6,"K:2, Cr:1, W:1, O:6",8.287,,,
Systematic_Generation,,,K2CrMnO6,,R-3,,,,8.076,,,,,DPERO_001458,,,Double_Perovskite,7.85,,K2CrMnO6,"K:2, Cr:1, Mn:1, O:6",8.021,,,
Systematic_Generation,,,K2CrFeO6,,R-3,,,,8.489,,,,,DPERO_001459,,,Double_Perovskite,8.171,,K2CrFeO6,"K:2, Cr:1, Fe:1, O:6",7.638,,,
Systematic_Generation,,,K2CrCoO6,,P21/n,,,,7.898,,,,,DPERO_001460,,,Double_Perovskite,7.533,,K2CrCoO6,"K:2, Cr:1, Co:1, O:6",7.59,,,
Systematic_Generation,,,K2MoWO6,,R-3,,,,8.329,,,,,DPERO_001461,,,Double_Perovskite,7.566,,K2MoWO6,"K:2, Mo:1, W:1, O:6",8.316,,,
Systematic_Generation,,,K2MoMnO6,,R-3,,,,8.092,,,,,DPERO_001462,,,Double_Perovskite,8.225,,K2MoMnO6,"K:2, Mo:1, Mn:1, O:6",7.792,,,
Systematic_Generation,,,K2MoFeO6,,Fm-3m,,,,7.94,,,,,DPERO_001463,,,Double_Perovskite,7.954,,K2MoFeO6,"K:2, Mo:1, Fe:1, O:6",8.5,,,
Systematic_Generation,,,K2MoCoO6,,P21/n,,,,7.781,,,,,DPERO_001464,,,Double_Perovskite,7.511,,K2MoCoO6,"K:2, Mo:1, Co:1, O:6",7.831,,,
Systematic_Generation,,,Ca2TiWO6,,R-3,,,,8.123,,,,,DPERO_001465,,,Double_Perovskite,8.497,,Ca2TiWO6,"Ca:2, Ti:1, W:1, O:6",7.923,,,
Systematic_Generation,,,Ca2TiMnO6,,P21/n,,,,8.256,,,,,DPERO_001466,,,Double_Perovskite,7.719,,Ca2TiMnO6,"Ca:2, Ti:1, Mn:1, O:6",8.387,,,
Systematic_Generation,,,Ca2TiFeO6,,R-3,,,,7.824,,,,,DPERO_001467,,,Double_Perovskite,7.916,,Ca2TiFeO6,"Ca:2, Ti:1, Fe:1, O:6",8.164,,,
Systematic_Generation,,,Ca2TiCoO6,,R-3,,,,8.036,,,,,DPERO_001468,,,Double_Perovskite,8.357,,Ca2TiCoO6,"Ca:2, Ti:1, Co:1, O:6",8.44,,,
Systematic_Generation,,,Ca2ZrWO6,,Fm-3m,,,,8.267,,,,,DPERO_001469,,,Double_Perovskite,8.137,,Ca2ZrWO6,"Ca:2, Zr:1, W:1, O:6",7.89,,,
Systematic_Generation,,,Ca2ZrMnO6,,Fm-3m,,,,7.798,,,,,DPERO_001470,,,Double_Perovskite,7.643,,Ca2ZrMnO6,"Ca:2, Zr:1, Mn:1, O:6",8.221,,,
Systematic_Generation,,,Ca2ZrFeO6,,R-3,,,,8.461,,,,,DPERO_001471,,,Double_Perovskite,7.592,,Ca2ZrFeO6,"Ca:2, Zr:1, Fe:1, O:6",7.629,,,
Systematic_Generation,,,Ca2ZrCoO6,,R-3,,,,7.57,,,,,DPERO_001472,,,Double_Perovskite,7.919,,Ca2ZrCoO6,"Ca:2, Zr:1, Co:1, O:6",8.176,,,
Systematic_Generation,,,Ca2HfWO6,,P21/n,,,,7.679,,,,,DPERO_001473,,,Double_Perovskite,7.661,,Ca2HfWO6,"Ca:2, Hf:1, W:1, O:6",7.579,,,
Systematic_Generation,,,Ca2HfMnO6,,Fm-3m,,,,7.838,,,,,DPERO_001474,,,Double_Perovskite,8.402,,Ca2HfMnO6,"Ca:2, Hf:1, Mn:1, O:6",7.67,,,
Systematic_Generation,,,Ca2HfFeO6,,Fm-3m,,,,8.267,,,,,DPERO_001475,,,Double_Perovskite,8.059,,Ca2HfFeO6,"Ca:2, Hf:1, Fe:1, O:6",7.838,,,
Systematic_Generation,,,Ca2HfCoO6,,P21/n,,,,7.838,,,,,DPERO_001476,,,Double_Perovskite,8.461,,Ca2HfCoO6,"Ca:2, Hf:1, Co:1, O:6",7.969,,,
Systematic_Generation,,,Ca2VWO6,,Fm-3m,,,,8.192,,,,,DPERO_001477,,,Double_Perovskite,8.374,,Ca2VWO6,"Ca:2, V:1, W:1, O:6",8.223,,,
Systematic_Generation,,,Ca2VMnO6,,Fm-3m,,,,8.031,,,,,DPERO_001478,,,Double_Perovskite,8.472,,Ca2VMnO6,"Ca:2, V:1, Mn:1, O:6",8.405,,,
Systematic_Generation,,,Ca2VFeO6,,R-3,,,,8.356,,,,,DPERO_001479,,,Double_Perovskite,8.094,,Ca2VFeO6,"Ca:2, V:1, Fe:1, O:6",7.884,,,
Systematic_Generation,,,Ca2VCoO6,,Fm-3m,,,,7.892,,,,,DPERO_001480,,,Double_Perovskite,7.669,,Ca2VCoO6,"Ca:2, V:1, Co:1, O:6",8.346,,,
Systematic_Generation,,,Ca2NbWO6,,P21/n,,,,8.152,,,,,DPERO_001481,,,Double_Perovskite,8.204,,Ca2NbWO6,"Ca:2, Nb:1, W:1, O:6",7.513,,,
Systematic_Generation,,,Ca2NbMnO6,,P21/n,,,,7.596,,,,,DPERO_001482,,,Double_Perovskite,8.195,,Ca2NbMnO6,"Ca:2, Nb:1, Mn:1, O:6",7.892,,,
Systematic_Generation,,,Ca2NbFeO6,,Fm-3m,,,,8.385,,,,,DPERO_001483,,,Double_Perovskite,8.086,,Ca2NbFeO6,"Ca:2, Nb:1, Fe:1, O:6",8.166,,,
Systematic_Generation,,,Ca2NbCoO6,,Fm-3m,,,,8.289,,,,,DPERO_001484,,,Double_Perovskite,7.888,,Ca2NbCoO6,"Ca:2, Nb:1, Co:1, O:6",7.922,,,
Systematic_Generation,,,Ca2TaWO6,,P21/n,,,,8.498,,,,,DPERO_001485,,,Double_Perovskite,7.938,,Ca2TaWO6,"Ca:2, Ta:1, W:1, O:6",7.953,,,
Systematic_Generation,,,Ca2TaMnO6,,P21/n,,,,8.168,,,,,DPERO_001486,,,Double_Perovskite,7.679,,Ca2TaMnO6,"Ca:2, Ta:1, Mn:1, O:6",7.674,,,
Systematic_Generation,,,Ca2TaFeO6,,P21/n,,,,7.795,,,,,DPERO_001487,,,Double_Perovskite,7.616,,Ca2TaFeO6,"Ca:2, Ta:1, Fe:1, O:6",8.39,,,
Systematic_Generation,,,Ca2TaCoO6,,P21/n,,,,7.72,,,,,DPERO_001488,,,Double_Perovskite,7.818,,Ca2TaCoO6,"Ca:2, Ta:1, Co:1, O:6",8.153,,,
Systematic_Generation,,,Ca2CrWO6,,P21/n,,,,7.578,,,,,DPERO_001489,,,Double_Perovskite,8.434,,Ca2CrWO6,"Ca:2, Cr:1, W:1, O:6",8.434,,,
Systematic_Generation,,,Ca2CrMnO6,,R-3,,,,8.106,,,,,DPERO_001490,,,Double_Perovskite,7.957,,Ca2CrMnO6,"Ca:2, Cr:1, Mn:1, O:6",8.446,,,
Systematic_Generation,,,Ca2CrFeO6,,Fm-3m,,,,7.871,,,,,DPERO_001491,,,Double_Perovskite,8.046,,Ca2CrFeO6,"Ca:2, Cr:1, Fe:1, O:6",8.428,,,
Systematic_Generation,,,Ca2CrCoO6,,Fm-3m,,,,7.774,,,,,DPERO_001492,,,Double_Perovskite,7.957,,Ca2CrCoO6,"Ca:2, Cr:1, Co:1, O:6",8.475,,,
Systematic_Generation,,,Ca2MoWO6,,Fm-3m,,,,8.079,,,,,DPERO_001493,,,Double_Perovskite,7.509,,Ca2MoWO6,"Ca:2, Mo:1, W:1, O:6",8.417,,,
Systematic_Generation,,,Ca2MoMnO6,,P21/n,,,,8.41,,,,,DPERO_001494,,,Double_Perovskite,7.61,,Ca2MoMnO6,"Ca:2, Mo:1, Mn:1, O:6",7.859,,,
Systematic_Generation,,,Ca2MoFeO6,,R-3,,,,8.236,,,,,DPERO_001495,,,Double_Perovskite,7.578,,Ca2MoFeO6,"Ca:2, Mo:1, Fe:1, O:6",7.967,,,
Systematic_Generation,,,Ca2MoCoO6,,P21/n,,,,7.819,,,,,DPERO_001496,,,Double_Perovskite,8.301,,Ca2MoCoO6,"Ca:2, Mo:1, Co:1, O:6",8.362,,,
Systematic_Generation,,,Sr2TiWO6,,Fm-3m,,,,7.92,,,,,DPERO_001497,,,Double_Perovskite,7.817,,Sr2TiWO6,"Sr:2, Ti:1, W:1, O:6",8.494,,,
Systematic_Generation,,,Sr2TiMnO6,,R-3,,,,8.166,,,,,DPERO_001498,,,Double_Perovskite,7.518,,Sr2TiMnO6,"Sr:2, Ti:1, Mn:1, O:6",7.551,,,
Systematic_Generation,,,Sr2TiFeO6,,R-3,,,,8.016,,,,,DPERO_001499,,,Double_Perovskite,7.961,,Sr2TiFeO6,"Sr:2, Ti:1, Fe:1, O:6",8.296,,,
Systematic_Generation,,,Sr2TiCoO6,,Fm-3m,,,,8.082,,,,,DPERO_001500,,,Double_Perovskite,8.219,,Sr2TiCoO6,"Sr:2, Ti:1, Co:1, O:6",8.478,,,
Systematic_Generation,,,Sr2ZrWO6,,P21/n,,,,8.382,,,,,DPERO_001501,,,Double_Perovskite,7.552,,Sr2ZrWO6,"Sr:2, Zr:1, W:1, O:6",8.257,,,
Systematic_Generation,,,Sr2ZrMnO6,,Fm-3m,,,,8.011,,,,,DPERO_001502,,,Double_Perovskite,7.554,,Sr2ZrMnO6,"Sr:2, Zr:1, Mn:1, O:6",8.107,,,
Systematic_Generation,,,Sr2ZrFeO6,,P21/n,,,,8.329,,,,,DPERO_001503,,,Double_Perovskite,7.509,,Sr2ZrFeO6,"Sr:2, Zr:1, Fe:1, O:6",8.142,,,
Systematic_Generation,,,Sr2ZrCoO6,,Fm-3m,,,,7.649,,,,,DPERO_001504,,,Double_Perovskite,8.126,,Sr2ZrCoO6,"Sr:2, Zr:1, Co:1, O:6",7.974,,,
Systematic_Generation,,,Sr2HfWO6,,Fm-3m,,,,7.782,,,,,DPERO_001505,,,Double_Perovskite,7.788,,Sr2HfWO6,"Sr:2, Hf:1, W:1, O:6",8.145,,,
Systematic_Generation,,,Sr2HfMnO6,,P21/n,,,,8.294,,,,,DPERO_001506,,,Double_Perovskite,7.757,,Sr2HfMnO6,"Sr:2, Hf:1, Mn:1, O:6",8.271,,,
Systematic_Generation,,,Sr2HfFeO6,,Fm-3m,,,,7.944,,,,,DPERO_001507,,,Double_Perovskite,7.91,,Sr2HfFeO6,"Sr:2, Hf:1, Fe:1, O:6",8.323,,,
Systematic_Generation,,,Sr2HfCoO6,,R-3,,,,8.361,,,,,DPERO_001508,,,Double_Perovskite,7.733,,Sr2HfCoO6,"Sr:2, Hf:1, Co:1, O:6",7.631,,,
Systematic_Generation,,,Sr2VWO6,,R-3,,,,8.447,,,,,DPERO_001509,,,Double_Perovskite,8.207,,Sr2VWO6,"Sr:2, V:1, W:1, O:6",8.139,,,
Systematic_Generation,,,Sr2VMnO6,,R-3,,,,7.504,,,,,DPERO_001510,,,Double_Perovskite,8.362,,Sr2VMnO6,"Sr:2, V:1, Mn:1, O:6",7.991,,,
Systematic_Generation,,,Sr2VFeO6,,Fm-3m,,,,7.829,,,,,DPERO_001511,,,Double_Perovskite,7.578,,Sr2VFeO6,"Sr:2, V:1, Fe:1, O:6",8.148,,,
Systematic_Generation,,,Sr2VCoO6,,P21/n,,,,8.231,,,,,DPERO_001512,,,Double_Perovskite,7.97,,Sr2VCoO6,"Sr:2, V:1, Co:1, O:6",8.215,,,
Systematic_Generation,,,Sr2NbWO6,,Fm-3m,,,,8.353,,,,,DPERO_001513,,,Double_Perovskite,7.945,,Sr2NbWO6,"Sr:2, Nb:1, W:1, O:6",8.43,,,
Systematic_Generation,,,Sr2NbMnO6,,P21/n,,,,7.525,,,,,DPERO_001514,,,Double_Perovskite,7.796,,Sr2NbMnO6,"Sr:2, Nb:1, Mn:1, O:6",8.326,,,
Systematic_Generation,,,Sr2NbFeO6,,R-3,,,,7.863,,,,,DPERO_001515,,,Double_Perovskite,7.564,,Sr2NbFeO6,"Sr:2, Nb:1, Fe:1, O:6",7.633,,,
Systematic_Generation,,,Sr2NbCoO6,,P21/n,,,,8.458,,,,,DPERO_001516,,,Double_Perovskite,8.431,,Sr2NbCoO6,"Sr:2, Nb:1, Co:1, O:6",7.748,,,
Systematic_Generation,,,Sr2TaWO6,,Fm-3m,,,,7.818,,,,,DPERO_001517,,,Double_Perovskite,7.833,,Sr2TaWO6,"Sr:2, Ta:1, W:1, O:6",7.933,,,
Systematic_Generation,,,Sr2TaMnO6,,P21/n,,,,7.701,,,,,DPERO_001518,,,Double_Perovskite,7.892,,Sr2TaMnO6,"Sr:2, Ta:1, Mn:1, O:6",7.781,,,
Systematic_Generation,,,Sr2TaFeO6,,R-3,,,,8.398,,,,,DPERO_001519,,,Double_Perovskite,8.437,,Sr2TaFeO6,"Sr:2, Ta:1, Fe:1, O:6",8.002,,,
Systematic_Generation,,,Sr2TaCoO6,,P21/n,,,,7.728,,,,,DPERO_001520,,,Double_Perovskite,8.423,,Sr2TaCoO6,"Sr:2, Ta:1, Co:1, O:6",8.176,,,
Systematic_Generation,,,Sr2CrWO6,,Fm-3m,,,,7.809,,,,,DPERO_001521,,,Double_Perovskite,7.649,,Sr2CrWO6,"Sr:2, Cr:1, W:1, O:6",7.923,,,
Systematic_Generation,,,Sr2CrMnO6,,P21/n,,,,7.526,,,,,DPERO_001522,,,Double_Perovskite,8.31,,Sr2CrMnO6,"Sr:2, Cr:1, Mn:1, O:6",8.153,,,
Systematic_Generation,,,Sr2CrFeO6,,R-3,,,,8.457,,,,,DPERO_001523,,,Double_Perovskite,8.33,,Sr2CrFeO6,"Sr:2, Cr:1, Fe:1, O:6",7.781,,,
Systematic_Generation,,,Sr2CrCoO6,,R-3,,,,8.478,,,,,DPERO_001524,,,Double_Perovskite,8.415,,Sr2CrCoO6,"Sr:2, Cr:1, Co:1, O:6",7.995,,,
Systematic_Generation,,,Sr2MoWO6,,R-3,,,,8.067,,,,,DPERO_001525,,,Double_Perovskite,8.389,,Sr2MoWO6,"Sr:2, Mo:1, W:1, O:6",8.292,,,
Systematic_Generation,,,Sr2MoMnO6,,R-3,,,,8.047,,,,,DPERO_001526,,,Double_Perovskite,8.379,,Sr2MoMnO6,"Sr:2, Mo:1, Mn:1, O:6",7.793,,,
Systematic_Generation,,,Sr2MoFeO6,,Fm-3m,,,,8.302,,,,,DPERO_001527,,,Double_Perovskite,8.08,,Sr2MoFeO6,"Sr:2, Mo:1, Fe:1, O:6",8.036,,,
Systematic_Generation,,,Sr2MoCoO6,,Fm-3m,,,,8.02,,,,,DPERO_001528,,,Double_Perovskite,7.529,,Sr2MoCoO6,"Sr:2, Mo:1, Co:1, O:6",8.238,,,
Systematic_Generation,,,Ba2TiWO6,,Fm-3m,,,,7.983,,,,,DPERO_001529,,,Double_Perovskite,8.098,,Ba2TiWO6,"Ba:2, Ti:1, W:1, O:6",7.83,,,
Systematic_Generation,,,Ba2TiMnO6,,Fm-3m,,,,8.22,,,,,DPERO_001530,,,Double_Perovskite,8.425,,Ba2TiMnO6,"Ba:2, Ti:1, Mn:1, O:6",8.339,,,
Systematic_Generation,,,Ba2TiFeO6,,Fm-3m,,,,8.123,,,,,DPERO_001531,,,Double_Perovskite,8.424,,Ba2TiFeO6,"Ba:2, Ti:1, Fe:1, O:6",8.101,,,
Systematic_Generation,,,Ba2TiCoO6,,P21/n,,,,8.115,,,,,DPERO_001532,,,Double_Perovskite,7.968,,Ba2TiCoO6,"Ba:2, Ti:1, Co:1, O:6",8.022,,,
Systematic_Generation,,,Ba2ZrWO6,,P21/n,,,,7.582,,,,,DPERO_001533,,,Double_Perovskite,7.605,,Ba2ZrWO6,"Ba:2, Zr:1, W:1, O:6",7.768,,,
Systematic_Generation,,,Ba2ZrMnO6,,P21/n,,,,8.398,,,,,DPERO_001534,,,Double_Perovskite,8.044,,Ba2ZrMnO6,"Ba:2, Zr:1, Mn:1, O:6",7.687,,,
Systematic_Generation,,,Ba2ZrFeO6,,R-3,,,,8.34,,,,,DPERO_001535,,,Double_Perovskite,8.456,,Ba2ZrFeO6,"Ba:2, Zr:1, Fe:1, O:6",8.092,,,
Systematic_Generation,,,Ba2ZrCoO6,,R-3,,,,7.824,,,,,DPERO_001536,,,Double_Perovskite,8.056,,Ba2ZrCoO6,"Ba:2, Zr:1, Co:1, O:6",8.283,,,
Systematic_Generation,,,Ba2HfWO6,,P21/n,,,,7.503,,,,,DPERO_001537,,,Double_Perovskite,7.607,,Ba2HfWO6,"Ba:2, Hf:1, W:1, O:6",7.854,,,
Systematic_Generation,,,Ba2HfMnO6,,Fm-3m,,,,8.107,,,,,DPERO_001538,,,Double_Perovskite,7.663,,Ba2HfMnO6,"Ba:2, Hf:1, Mn:1, O:6",7.958,,,
Systematic_Generation,,,Ba2HfFeO6,,Fm-3m,,,,8.072,,,,,DPERO_001539,,,Double_Perovskite,8.467,,Ba2HfFeO6,"Ba:2, Hf:1, Fe:1, O:6",8.193,,,
Systematic_Generation,,,Ba2HfCoO6,,R-3,,,,8.459,,,,,DPERO_001540,,,Double_Perovskite,7.921,,Ba2HfCoO6,"Ba:2, Hf:1, Co:1, O:6",7.765,,,
Systematic_Generation,,,Ba2VWO6,,R-3,,,,8.303,,,,,DPERO_001541,,,Double_Perovskite,8.061,,Ba2VWO6,"Ba:2, V:1, W:1, O:6",8.013,,,