source,n_elements,doping_concentration,name,termination,space_group,doping_level,volume_fraction,weight_percent,lattice_c,temperature,reinforcement,matrix,layers,material_id,molecular_weight,deposition_method,type,lattice_b,pdi,formula,composition,lattice_a,thickness_nm,dopant,substrate
Systematic_Generation,,5000000000000000.0,ZnO:P_5.0e+15,,Inherited,,,,,,,,,DOPED_004651,,,Doped_Semiconductor,,,ZnO_P,ZnO + P @ 5.0e+15 cm^-3,,,P,
Systematic_Generation,,1e+16,ZnO:P_1.0e+16,,Inherited,,,,,,,,,DOPED_004652,,,Doped_Semiconductor,,,ZnO_P,ZnO + P @ 1.0e+16 cm^-3,,,P,
Systematic_Generation,,5e+16,ZnO:P_5.0e+16,,Inherited,,,,,,,,,DOPED_004653,,,Doped_Semiconductor,,,ZnO_P,ZnO + P @ 5.0e+16 cm^-3,,,P,
Systematic_Generation,,1e+17,ZnO:P_1.0e+17,,Inherited,,,,,,,,,DOPED_004654,,,Doped_Semiconductor,,,ZnO_P,ZnO + P @ 1.0e+17 cm^-3,,,P,
Systematic_Generation,,5e+17,ZnO:P_5.0e+17,,Inherited,,,,,,,,,DOPED_004655,,,Doped_Semiconductor,,,ZnO_P,ZnO + P @ 5.0e+17 cm^-3,,,P,
Systematic_Generation,,1e+18,ZnO:P_1.0e+18,,Inherited,,,,,,,,,DOPED_004656,,,Doped_Semiconductor,,,ZnO_P,ZnO + P @ 1.0e+18 cm^-3,,,P,
Systematic_Generation,,5e+18,ZnO:P_5.0e+18,,Inherited,,,,,,,,,DOPED_004657,,,Doped_Semiconductor,,,ZnO_P,ZnO + P @ 5.0e+18 cm^-3,,,P,
Systematic_Generation,,1e+19,ZnO:P_1.0e+19,,Inherited,,,,,,,,,DOPED_004658,,,Doped_Semiconductor,,,ZnO_P,ZnO + P @ 1.0e+19 cm^-3,,,P,
Systematic_Generation,,5e+19,ZnO:P_5.0e+19,,Inherited,,,,,,,,,DOPED_004659,,,Doped_Semiconductor,,,ZnO_P,ZnO + P @ 5.0e+19 cm^-3,,,P,
Systematic_Generation,,1e+20,ZnO:P_1.0e+20,,Inherited,,,,,,,,,DOPED_004660,,,Doped_Semiconductor,,,ZnO_P,ZnO + P @ 1.0e+20 cm^-3,,,P,
Systematic_Generation,,1e+21,ZnO:P_1.0e+21,,Inherited,,,,,,,,,DOPED_004661,,,Doped_Semiconductor,,,ZnO_P,ZnO + P @ 1.0e+21 cm^-3,,,P,
Systematic_Generation,,1000000000000000.0,ZnO:As_1.0e+15,,Inherited,,,,,,,,,DOPED_004662,,,Doped_Semiconductor,,,ZnO_As,ZnO + As @ 1.0e+15 cm^-3,,,As,
Systematic_Generation,,5000000000000000.0,ZnO:As_5.0e+15,,Inherited,,,,,,,,,DOPED_004663,,,Doped_Semiconductor,,,ZnO_As,ZnO + As @ 5.0e+15 cm^-3,,,As,
Systematic_Generation,,1e+16,ZnO:As_1.0e+16,,Inherited,,,,,,,,,DOPED_004664,,,Doped_Semiconductor,,,ZnO_As,ZnO + As @ 1.0e+16 cm^-3,,,As,
Systematic_Generation,,5e+16,ZnO:As_5.0e+16,,Inherited,,,,,,,,,DOPED_004665,,,Doped_Semiconductor,,,ZnO_As,ZnO + As @ 5.0e+16 cm^-3,,,As,
Systematic_Generation,,1e+17,ZnO:As_1.0e+17,,Inherited,,,,,,,,,DOPED_004666,,,Doped_Semiconductor,,,ZnO_As,ZnO + As @ 1.0e+17 cm^-3,,,As,
Systematic_Generation,,5e+17,ZnO:As_5.0e+17,,Inherited,,,,,,,,,DOPED_004667,,,Doped_Semiconductor,,,ZnO_As,ZnO + As @ 5.0e+17 cm^-3,,,As,
Systematic_Generation,,1e+18,ZnO:As_1.0e+18,,Inherited,,,,,,,,,DOPED_004668,,,Doped_Semiconductor,,,ZnO_As,ZnO + As @ 1.0e+18 cm^-3,,,As,
Systematic_Generation,,5e+18,ZnO:As_5.0e+18,,Inherited,,,,,,,,,DOPED_004669,,,Doped_Semiconductor,,,ZnO_As,ZnO + As @ 5.0e+18 cm^-3,,,As,
Systematic_Generation,,1e+19,ZnO:As_1.0e+19,,Inherited,,,,,,,,,DOPED_004670,,,Doped_Semiconductor,,,ZnO_As,ZnO + As @ 1.0e+19 cm^-3,,,As,
Systematic_Generation,,5e+19,ZnO:As_5.0e+19,,Inherited,,,,,,,,,DOPED_004671,,,Doped_Semiconductor,,,ZnO_As,ZnO + As @ 5.0e+19 cm^-3,,,As,
Systematic_Generation,,1e+20,ZnO:As_1.0e+20,,Inherited,,,,,,,,,DOPED_004672,,,Doped_Semiconductor,,,ZnO_As,ZnO + As @ 1.0e+20 cm^-3,,,As,
Systematic_Generation,,1e+21,ZnO:As_1.0e+21,,Inherited,,,,,,,,,DOPED_004673,,,Doped_Semiconductor,,,ZnO_As,ZnO + As @ 1.0e+21 cm^-3,,,As,
Systematic_Generation,,1000000000000000.0,ZnO:Sb_1.0e+15,,Inherited,,,,,,,,,DOPED_004674,,,Doped_Semiconductor,,,ZnO_Sb,ZnO + Sb @ 1.0e+15 cm^-3,,,Sb,
Systematic_Generation,,5000000000000000.0,ZnO:Sb_5.0e+15,,Inherited,,,,,,,,,DOPED_004675,,,Doped_Semiconductor,,,ZnO_Sb,ZnO + Sb @ 5.0e+15 cm^-3,,,Sb,
Systematic_Generation,,1e+16,ZnO:Sb_1.0e+16,,Inherited,,,,,,,,,DOPED_004676,,,Doped_Semiconductor,,,ZnO_Sb,ZnO + Sb @ 1.0e+16 cm^-3,,,Sb,
Systematic_Generation,,5e+16,ZnO:Sb_5.0e+16,,Inherited,,,,,,,,,DOPED_004677,,,Doped_Semiconductor,,,ZnO_Sb,ZnO + Sb @ 5.0e+16 cm^-3,,,Sb,
Systematic_Generation,,1e+17,ZnO:Sb_1.0e+17,,Inherited,,,,,,,,,DOPED_004678,,,Doped_Semiconductor,,,ZnO_Sb,ZnO + Sb @ 1.0e+17 cm^-3,,,Sb,
Systematic_Generation,,5e+17,ZnO:Sb_5.0e+17,,Inherited,,,,,,,,,DOPED_004679,,,Doped_Semiconductor,,,ZnO_Sb,ZnO + Sb @ 5.0e+17 cm^-3,,,Sb,
Systematic_Generation,,1e+18,ZnO:Sb_1.0e+18,,Inherited,,,,,,,,,DOPED_004680,,,Doped_Semiconductor,,,ZnO_Sb,ZnO + Sb @ 1.0e+18 cm^-3,,,Sb,
Systematic_Generation,,5e+18,ZnO:Sb_5.0e+18,,Inherited,,,,,,,,,DOPED_004681,,,Doped_Semiconductor,,,ZnO_Sb,ZnO + Sb @ 5.0e+18 cm^-3,,,Sb,
Systematic_Generation,,1e+19,ZnO:Sb_1.0e+19,,Inherited,,,,,,,,,DOPED_004682,,,Doped_Semiconductor,,,ZnO_Sb,ZnO + Sb @ 1.0e+19 cm^-3,,,Sb,
Systematic_Generation,,5e+19,ZnO:Sb_5.0e+19,,Inherited,,,,,,,,,DOPED_004683,,,Doped_Semiconductor,,,ZnO_Sb,ZnO + Sb @ 5.0e+19 cm^-3,,,Sb,
Systematic_Generation,,1e+20,ZnO:Sb_1.0e+20,,Inherited,,,,,,,,,DOPED_004684,,,Doped_Semiconductor,,,ZnO_Sb,ZnO + Sb @ 1.0e+20 cm^-3,,,Sb,
Systematic_Generation,,1e+21,ZnO:Sb_1.0e+21,,Inherited,,,,,,,,,DOPED_004685,,,Doped_Semiconductor,,,ZnO_Sb,ZnO + Sb @ 1.0e+21 cm^-3,,,Sb,
Systematic_Generation,,1000000000000000.0,ZnO:N_1.0e+15,,Inherited,,,,,,,,,DOPED_004686,,,Doped_Semiconductor,,,ZnO_N,ZnO + N @ 1.0e+15 cm^-3,,,N,
Systematic_Generation,,5000000000000000.0,ZnO:N_5.0e+15,,Inherited,,,,,,,,,DOPED_004687,,,Doped_Semiconductor,,,ZnO_N,ZnO + N @ 5.0e+15 cm^-3,,,N,
Systematic_Generation,,1e+16,ZnO:N_1.0e+16,,Inherited,,,,,,,,,DOPED_004688,,,Doped_Semiconductor,,,ZnO_N,ZnO + N @ 1.0e+16 cm^-3,,,N,
Systematic_Generation,,5e+16,ZnO:N_5.0e+16,,Inherited,,,,,,,,,DOPED_004689,,,Doped_Semiconductor,,,ZnO_N,ZnO + N @ 5.0e+16 cm^-3,,,N,
Systematic_Generation,,1e+17,ZnO:N_1.0e+17,,Inherited,,,,,,,,,DOPED_004690,,,Doped_Semiconductor,,,ZnO_N,ZnO + N @ 1.0e+17 cm^-3,,,N,
Systematic_Generation,,5e+17,ZnO:N_5.0e+17,,Inherited,,,,,,,,,DOPED_004691,,,Doped_Semiconductor,,,ZnO_N,ZnO + N @ 5.0e+17 cm^-3,,,N,
Systematic_Generation,,1e+18,ZnO:N_1.0e+18,,Inherited,,,,,,,,,DOPED_004692,,,Doped_Semiconductor,,,ZnO_N,ZnO + N @ 1.0e+18 cm^-3,,,N,
Systematic_Generation,,5e+18,ZnO:N_5.0e+18,,Inherited,,,,,,,,,DOPED_004693,,,Doped_Semiconductor,,,ZnO_N,ZnO + N @ 5.0e+18 cm^-3,,,N,
Systematic_Generation,,1e+19,ZnO:N_1.0e+19,,Inherited,,,,,,,,,DOPED_004694,,,Doped_Semiconductor,,,ZnO_N,ZnO + N @ 1.0e+19 cm^-3,,,N,
Systematic_Generation,,5e+19,ZnO:N_5.0e+19,,Inherited,,,,,,,,,DOPED_004695,,,Doped_Semiconductor,,,ZnO_N,ZnO + N @ 5.0e+19 cm^-3,,,N,
Systematic_Generation,,1e+20,ZnO:N_1.0e+20,,Inherited,,,,,,,,,DOPED_004696,,,Doped_Semiconductor,,,ZnO_N,ZnO + N @ 1.0e+20 cm^-3,,,N,
Systematic_Generation,,1e+21,ZnO:N_1.0e+21,,Inherited,,,,,,,,,DOPED_004697,,,Doped_Semiconductor,,,ZnO_N,ZnO + N @ 1.0e+21 cm^-3,,,N,
Systematic_Generation,,1000000000000000.0,ZnO:Al_1.0e+15,,Inherited,,,,,,,,,DOPED_004698,,,Doped_Semiconductor,,,ZnO_Al,ZnO + Al @ 1.0e+15 cm^-3,,,Al,
Systematic_Generation,,5000000000000000.0,ZnO:Al_5.0e+15,,Inherited,,,,,,,,,DOPED_004699,,,Doped_Semiconductor,,,ZnO_Al,ZnO + Al @ 5.0e+15 cm^-3,,,Al,
Systematic_Generation,,1e+16,ZnO:Al_1.0e+16,,Inherited,,,,,,,,,DOPED_004700,,,Doped_Semiconductor,,,ZnO_Al,ZnO + Al @ 1.0e+16 cm^-3,,,Al,
Systematic_Generation,,5e+16,ZnO:Al_5.0e+16,,Inherited,,,,,,,,,DOPED_004701,,,Doped_Semiconductor,,,ZnO_Al,ZnO + Al @ 5.0e+16 cm^-3,,,Al,
Systematic_Generation,,1e+17,ZnO:Al_1.0e+17,,Inherited,,,,,,,,,DOPED_004702,,,Doped_Semiconductor,,,ZnO_Al,ZnO + Al @ 1.0e+17 cm^-3,,,Al,
Systematic_Generation,,5e+17,ZnO:Al_5.0e+17,,Inherited,,,,,,,,,DOPED_004703,,,Doped_Semiconductor,,,ZnO_Al,ZnO + Al @ 5.0e+17 cm^-3,,,Al,
Systematic_Generation,,1e+18,ZnO:Al_1.0e+18,,Inherited,,,,,,,,,DOPED_004704,,,Doped_Semiconductor,,,ZnO_Al,ZnO + Al @ 1.0e+18 cm^-3,,,Al,
Systematic_Generation,,5e+18,ZnO:Al_5.0e+18,,Inherited,,,,,,,,,DOPED_004705,,,Doped_Semiconductor,,,ZnO_Al,ZnO + Al @ 5.0e+18 cm^-3,,,Al,
Systematic_Generation,,1e+19,ZnO:Al_1.0e+19,,Inherited,,,,,,,,,DOPED_004706,,,Doped_Semiconductor,,,ZnO_Al,ZnO + Al @ 1.0e+19 cm^-3,,,Al,
Systematic_Generation,,5e+19,ZnO:Al_5.0e+19,,Inherited,,,,,,,,,DOPED_004707,,,Doped_Semiconductor,,,ZnO_Al,ZnO + Al @ 5.0e+19 cm^-3,,,Al,
Systematic_Generation,,1e+20,ZnO:Al_1.0e+20,,Inherited,,,,,,,,,DOPED_004708,,,Doped_Semiconductor,,,ZnO_Al,ZnO + Al @ 1.0e+20 cm^-3,,,Al,
Systematic_Generation,,1e+21,ZnO:Al_1.0e+21,,Inherited,,,,,,,,,DOPED_004709,,,Doped_Semiconductor,,,ZnO_Al,ZnO + Al @ 1.0e+21 cm^-3,,,Al,
Systematic_Generation,,1000000000000000.0,ZnO:Ga_1.0e+15,,Inherited,,,,,,,,,DOPED_004710,,,Doped_Semiconductor,,,ZnO_Ga,ZnO + Ga @ 1.0e+15 cm^-3,,,Ga,
Systematic_Generation,,5000000000000000.0,ZnO:Ga_5.0e+15,,Inherited,,,,,,,,,DOPED_004711,,,Doped_Semiconductor,,,ZnO_Ga,ZnO + Ga @ 5.0e+15 cm^-3,,,Ga,
Systematic_Generation,,1e+16,ZnO:Ga_1.0e+16,,Inherited,,,,,,,,,DOPED_004712,,,Doped_Semiconductor,,,ZnO_Ga,ZnO + Ga @ 1.0e+16 cm^-3,,,Ga,
Systematic_Generation,,5e+16,ZnO:Ga_5.0e+16,,Inherited,,,,,,,,,DOPED_004713,,,Doped_Semiconductor,,,ZnO_Ga,ZnO + Ga @ 5.0e+16 cm^-3,,,Ga,
Systematic_Generation,,1e+17,ZnO:Ga_1.0e+17,,Inherited,,,,,,,,,DOPED_004714,,,Doped_Semiconductor,,,ZnO_Ga,ZnO + Ga @ 1.0e+17 cm^-3,,,Ga,
Systematic_Generation,,5e+17,ZnO:Ga_5.0e+17,,Inherited,,,,,,,,,DOPED_004715,,,Doped_Semiconductor,,,ZnO_Ga,ZnO + Ga @ 5.0e+17 cm^-3,,,Ga,
Systematic_Generation,,1e+18,ZnO:Ga_1.0e+18,,Inherited,,,,,,,,,DOPED_004716,,,Doped_Semiconductor,,,ZnO_Ga,ZnO + Ga @ 1.0e+18 cm^-3,,,Ga,
Systematic_Generation,,5e+18,ZnO:Ga_5.0e+18,,Inherited,,,,,,,,,DOPED_004717,,,Doped_Semiconductor,,,ZnO_Ga,ZnO + Ga @ 5.0e+18 cm^-3,,,Ga,
Systematic_Generation,,1e+19,ZnO:Ga_1.0e+19,,Inherited,,,,,,,,,DOPED_004718,,,Doped_Semiconductor,,,ZnO_Ga,ZnO + Ga @ 1.0e+19 cm^-3,,,Ga,
Systematic_Generation,,5e+19,ZnO:Ga_5.0e+19,,Inherited,,,,,,,,,DOPED_004719,,,Doped_Semiconductor,,,ZnO_Ga,ZnO + Ga @ 5.0e+19 cm^-3,,,Ga,
Systematic_Generation,,1e+20,ZnO:Ga_1.0e+20,,Inherited,,,,,,,,,DOPED_004720,,,Doped_Semiconductor,,,ZnO_Ga,ZnO + Ga @ 1.0e+20 cm^-3,,,Ga,
Systematic_Generation,,1e+21,ZnO:Ga_1.0e+21,,Inherited,,,,,,,,,DOPED_004721,,,Doped_Semiconductor,,,ZnO_Ga,ZnO + Ga @ 1.0e+21 cm^-3,,,Ga,
Systematic_Generation,,1000000000000000.0,ZnO:In_1.0e+15,,Inherited,,,,,,,,,DOPED_004722,,,Doped_Semiconductor,,,ZnO_In,ZnO + In @ 1.0e+15 cm^-3,,,In,
Systematic_Generation,,5000000000000000.0,ZnO:In_5.0e+15,,Inherited,,,,,,,,,DOPED_004723,,,Doped_Semiconductor,,,ZnO_In,ZnO + In @ 5.0e+15 cm^-3,,,In,
Systematic_Generation,,1e+16,ZnO:In_1.0e+16,,Inherited,,,,,,,,,DOPED_004724,,,Doped_Semiconductor,,,ZnO_In,ZnO + In @ 1.0e+16 cm^-3,,,In,
Systematic_Generation,,5e+16,ZnO:In_5.0e+16,,Inherited,,,,,,,,,DOPED_004725,,,Doped_Semiconductor,,,ZnO_In,ZnO + In @ 5.0e+16 cm^-3,,,In,
Systematic_Generation,,1e+17,ZnO:In_1.0e+17,,Inherited,,,,,,,,,DOPED_004726,,,Doped_Semiconductor,,,ZnO_In,ZnO + In @ 1.0e+17 cm^-3,,,In,
Systematic_Generation,,5e+17,ZnO:In_5.0e+17,,Inherited,,,,,,,,,DOPED_004727,,,Doped_Semiconductor,,,ZnO_In,ZnO + In @ 5.0e+17 cm^-3,,,In,
Systematic_Generation,,1e+18,ZnO:In_1.0e+18,,Inherited,,,,,,,,,DOPED_004728,,,Doped_Semiconductor,,,ZnO_In,ZnO + In @ 1.0e+18 cm^-3,,,In,
Systematic_Generation,,5e+18,ZnO:In_5.0e+18,,Inherited,,,,,,,,,DOPED_004729,,,Doped_Semiconductor,,,ZnO_In,ZnO + In @ 5.0e+18 cm^-3,,,In,
Systematic_Generation,,1e+19,ZnO:In_1.0e+19,,Inherited,,,,,,,,,DOPED_004730,,,Doped_Semiconductor,,,ZnO_In,ZnO + In @ 1.0e+19 cm^-3,,,In,
Systematic_Generation,,5e+19,ZnO:In_5.0e+19,,Inherited,,,,,,,,,DOPED_004731,,,Doped_Semiconductor,,,ZnO_In,ZnO + In @ 5.0e+19 cm^-3,,,In,
Systematic_Generation,,1e+20,ZnO:In_1.0e+20,,Inherited,,,,,,,,,DOPED_004732,,,Doped_Semiconductor,,,ZnO_In,ZnO + In @ 1.0e+20 cm^-3,,,In,
Systematic_Generation,,1e+21,ZnO:In_1.0e+21,,Inherited,,,,,,,,,DOPED_004733,,,Doped_Semiconductor,,,ZnO_In,ZnO + In @ 1.0e+21 cm^-3,,,In,
Systematic_Generation,,1000000000000000.0,ZnO:Bi_1.0e+15,,Inherited,,,,,,,,,DOPED_004734,,,Doped_Semiconductor,,,ZnO_Bi,ZnO + Bi @ 1.0e+15 cm^-3,,,Bi,
Systematic_Generation,,5000000000000000.0,ZnO:Bi_5.0e+15,,Inherited,,,,,,,,,DOPED_004735,,,Doped_Semiconductor,,,ZnO_Bi,ZnO + Bi @ 5.0e+15 cm^-3,,,Bi,
Systematic_Generation,,1e+16,ZnO:Bi_1.0e+16,,Inherited,,,,,,,,,DOPED_004736,,,Doped_Semiconductor,,,ZnO_Bi,ZnO + Bi @ 1.0e+16 cm^-3,,,Bi,
Systematic_Generation,,5e+16,ZnO:Bi_5.0e+16,,Inherited,,,,,,,,,DOPED_004737,,,Doped_Semiconductor,,,ZnO_Bi,ZnO + Bi @ 5.0e+16 cm^-3,,,Bi,
Systematic_Generation,,1e+17,ZnO:Bi_1.0e+17,,Inherited,,,,,,,,,DOPED_004738,,,Doped_Semiconductor,,,ZnO_Bi,ZnO + Bi @ 1.0e+17 cm^-3,,,Bi,
Systematic_Generation,,5e+17,ZnO:Bi_5.0e+17,,Inherited,,,,,,,,,DOPED_004739,,,Doped_Semiconductor,,,ZnO_Bi,ZnO + Bi @ 5.0e+17 cm^-3,,,Bi,
Systematic_Generation,,1e+18,ZnO:Bi_1.0e+18,,Inherited,,,,,,,,,DOPED_004740,,,Doped_Semiconductor,,,ZnO_Bi,ZnO + Bi @ 1.0e+18 cm^-3,,,Bi,
Systematic_Generation,,5e+18,ZnO:Bi_5.0e+18,,Inherited,,,,,,,,,DOPED_004741,,,Doped_Semiconductor,,,ZnO_Bi,ZnO + Bi @ 5.0e+18 cm^-3,,,Bi,
Systematic_Generation,,1e+19,ZnO:Bi_1.0e+19,,Inherited,,,,,,,,,DOPED_004742,,,Doped_Semiconductor,,,ZnO_Bi,ZnO + Bi @ 1.0e+19 cm^-3,,,Bi,
Systematic_Generation,,5e+19,ZnO:Bi_5.0e+19,,Inherited,,,,,,,,,DOPED_004743,,,Doped_Semiconductor,,,ZnO_Bi,ZnO + Bi @ 5.0e+19 cm^-3,,,Bi,
Systematic_Generation,,1e+20,ZnO:Bi_1.0e+20,,Inherited,,,,,,,,,DOPED_004744,,,Doped_Semiconductor,,,ZnO_Bi,ZnO + Bi @ 1.0e+20 cm^-3,,,Bi,
Systematic_Generation,,1e+21,ZnO:Bi_1.0e+21,,Inherited,,,,,,,,,DOPED_004745,,,Doped_Semiconductor,,,ZnO_Bi,ZnO + Bi @ 1.0e+21 cm^-3,,,Bi,
Systematic_Generation,,1000000000000000.0,ZnO:Li_1.0e+15,,Inherited,,,,,,,,,DOPED_004746,,,Doped_Semiconductor,,,ZnO_Li,ZnO + Li @ 1.0e+15 cm^-3,,,Li,
Systematic_Generation,,5000000000000000.0,ZnO:Li_5.0e+15,,Inherited,,,,,,,,,DOPED_004747,,,Doped_Semiconductor,,,ZnO_Li,ZnO + Li @ 5.0e+15 cm^-3,,,Li,
Systematic_Generation,,1e+16,ZnO:Li_1.0e+16,,Inherited,,,,,,,,,DOPED_004748,,,Doped_Semiconductor,,,ZnO_Li,ZnO + Li @ 1.0e+16 cm^-3,,,Li,
Systematic_Generation,,5e+16,ZnO:Li_5.0e+16,,Inherited,,,,,,,,,DOPED_004749,,,Doped_Semiconductor,,,ZnO_Li,ZnO + Li @ 5.0e+16 cm^-3,,,Li,
Systematic_Generation,,1e+17,ZnO:Li_1.0e+17,,Inherited,,,,,,,,,DOPED_004750,,,Doped_Semiconductor,,,ZnO_Li,ZnO + Li @ 1.0e+17 cm^-3,,,Li,
Systematic_Generation,,5e+17,ZnO:Li_5.0e+17,,Inherited,,,,,,,,,DOPED_004751,,,Doped_Semiconductor,,,ZnO_Li,ZnO + Li @ 5.0e+17 cm^-3,,,Li,
Systematic_Generation,,1e+18,ZnO:Li_1.0e+18,,Inherited,,,,,,,,,DOPED_004752,,,Doped_Semiconductor,,,ZnO_Li,ZnO + Li @ 1.0e+18 cm^-3,,,Li,
Systematic_Generation,,5e+18,ZnO:Li_5.0e+18,,Inherited,,,,,,,,,DOPED_004753,,,Doped_Semiconductor,,,ZnO_Li,ZnO + Li @ 5.0e+18 cm^-3,,,Li,
Systematic_Generation,,1e+19,ZnO:Li_1.0e+19,,Inherited,,,,,,,,,DOPED_004754,,,Doped_Semiconductor,,,ZnO_Li,ZnO + Li @ 1.0e+19 cm^-3,,,Li,
Systematic_Generation,,5e+19,ZnO:Li_5.0e+19,,Inherited,,,,,,,,,DOPED_004755,,,Doped_Semiconductor,,,ZnO_Li,ZnO + Li @ 5.0e+19 cm^-3,,,Li,
Systematic_Generation,,1e+20,ZnO:Li_1.0e+20,,Inherited,,,,,,,,,DOPED_004756,,,Doped_Semiconductor,,,ZnO_Li,ZnO + Li @ 1.0e+20 cm^-3,,,Li,
Systematic_Generation,,1e+21,ZnO:Li_1.0e+21,,Inherited,,,,,,,,,DOPED_004757,,,Doped_Semiconductor,,,ZnO_Li,ZnO + Li @ 1.0e+21 cm^-3,,,Li,
Systematic_Generation,,1000000000000000.0,ZnO:S_1.0e+15,,Inherited,,,,,,,,,DOPED_004758,,,Doped_Semiconductor,,,ZnO_S,ZnO + S @ 1.0e+15 cm^-3,,,S,
Systematic_Generation,,5000000000000000.0,ZnO:S_5.0e+15,,Inherited,,,,,,,,,DOPED_004759,,,Doped_Semiconductor,,,ZnO_S,ZnO + S @ 5.0e+15 cm^-3,,,S,
Systematic_Generation,,1e+16,ZnO:S_1.0e+16,,Inherited,,,,,,,,,DOPED_004760,,,Doped_Semiconductor,,,ZnO_S,ZnO + S @ 1.0e+16 cm^-3,,,S,
Systematic_Generation,,5e+16,ZnO:S_5.0e+16,,Inherited,,,,,,,,,DOPED_004761,,,Doped_Semiconductor,,,ZnO_S,ZnO + S @ 5.0e+16 cm^-3,,,S,
Systematic_Generation,,1e+17,ZnO:S_1.0e+17,,Inherited,,,,,,,,,DOPED_004762,,,Doped_Semiconductor,,,ZnO_S,ZnO + S @ 1.0e+17 cm^-3,,,S,
Systematic_Generation,,5e+17,ZnO:S_5.0e+17,,Inherited,,,,,,,,,DOPED_004763,,,Doped_Semiconductor,,,ZnO_S,ZnO + S @ 5.0e+17 cm^-3,,,S,
Systematic_Generation,,1e+18,ZnO:S_1.0e+18,,Inherited,,,,,,,,,DOPED_004764,,,Doped_Semiconductor,,,ZnO_S,ZnO + S @ 1.0e+18 cm^-3,,,S,
Systematic_Generation,,5e+18,ZnO:S_5.0e+18,,Inherited,,,,,,,,,DOPED_004765,,,Doped_Semiconductor,,,ZnO_S,ZnO + S @ 5.0e+18 cm^-3,,,S,
Systematic_Generation,,1e+19,ZnO:S_1.0e+19,,Inherited,,,,,,,,,DOPED_004766,,,Doped_Semiconductor,,,ZnO_S,ZnO + S @ 1.0e+19 cm^-3,,,S,
Systematic_Generation,,5e+19,ZnO:S_5.0e+19,,Inherited,,,,,,,,,DOPED_004767,,,Doped_Semiconductor,,,ZnO_S,ZnO + S @ 5.0e+19 cm^-3,,,S,
Systematic_Generation,,1e+20,ZnO:S_1.0e+20,,Inherited,,,,,,,,,DOPED_004768,,,Doped_Semiconductor,,,ZnO_S,ZnO + S @ 1.0e+20 cm^-3,,,S,
Systematic_Generation,,1e+21,ZnO:S_1.0e+21,,Inherited,,,,,,,,,DOPED_004769,,,Doped_Semiconductor,,,ZnO_S,ZnO + S @ 1.0e+21 cm^-3,,,S,
Systematic_Generation,,1000000000000000.0,ZnO:Se_1.0e+15,,Inherited,,,,,,,,,DOPED_004770,,,Doped_Semiconductor,,,ZnO_Se,ZnO + Se @ 1.0e+15 cm^-3,,,Se,
Systematic_Generation,,5000000000000000.0,ZnO:Se_5.0e+15,,Inherited,,,,,,,,,DOPED_004771,,,Doped_Semiconductor,,,ZnO_Se,ZnO + Se @ 5.0e+15 cm^-3,,,Se,
Systematic_Generation,,1e+16,ZnO:Se_1.0e+16,,Inherited,,,,,,,,,DOPED_004772,,,Doped_Semiconductor,,,ZnO_Se,ZnO + Se @ 1.0e+16 cm^-3,,,Se,
Systematic_Generation,,5e+16,ZnO:Se_5.0e+16,,Inherited,,,,,,,,,DOPED_004773,,,Doped_Semiconductor,,,ZnO_Se,ZnO + Se @ 5.0e+16 cm^-3,,,Se,
Systematic_Generation,,1e+17,ZnO:Se_1.0e+17,,Inherited,,,,,,,,,DOPED_004774,,,Doped_Semiconductor,,,ZnO_Se,ZnO + Se @ 1.0e+17 cm^-3,,,Se,
Systematic_Generation,,5e+17,ZnO:Se_5.0e+17,,Inherited,,,,,,,,,DOPED_004775,,,Doped_Semiconductor,,,ZnO_Se,ZnO + Se @ 5.0e+17 cm^-3,,,Se,
Systematic_Generation,,1e+18,ZnO:Se_1.0e+18,,Inherited,,,,,,,,,DOPED_004776,,,Doped_Semiconductor,,,ZnO_Se,ZnO + Se @ 1.0e+18 cm^-3,,,Se,
Systematic_Generation,,5e+18,ZnO:Se_5.0e+18,,Inherited,,,,,,,,,DOPED_004777,,,Doped_Semiconductor,,,ZnO_Se,ZnO + Se @ 5.0e+18 cm^-3,,,Se,
Systematic_Generation,,1e+19,ZnO:Se_1.0e+19,,Inherited,,,,,,,,,DOPED_004778,,,Doped_Semiconductor,,,ZnO_Se,ZnO + Se @ 1.0e+19 cm^-3,,,Se,
Systematic_Generation,,5e+19,ZnO:Se_5.0e+19,,Inherited,,,,,,,,,DOPED_004779,,,Doped_Semiconductor,,,ZnO_Se,ZnO + Se @ 5.0e+19 cm^-3,,,Se,
Systematic_Generation,,1e+20,ZnO:Se_1.0e+20,,Inherited,,,,,,,,,DOPED_004780,,,Doped_Semiconductor,,,ZnO_Se,ZnO + Se @ 1.0e+20 cm^-3,,,Se,
Systematic_Generation,,1e+21,ZnO:Se_1.0e+21,,Inherited,,,,,,,,,DOPED_004781,,,Doped_Semiconductor,,,ZnO_Se,ZnO + Se @ 1.0e+21 cm^-3,,,Se,
Systematic_Generation,,1000000000000000.0,ZnO:Te_1.0e+15,,Inherited,,,,,,,,,DOPED_004782,,,Doped_Semiconductor,,,ZnO_Te,ZnO + Te @ 1.0e+15 cm^-3,,,Te,
Systematic_Generation,,5000000000000000.0,ZnO:Te_5.0e+15,,Inherited,,,,,,,,,DOPED_004783,,,Doped_Semiconductor,,,ZnO_Te,ZnO + Te @ 5.0e+15 cm^-3,,,Te,
Systematic_Generation,,1e+16,ZnO:Te_1.0e+16,,Inherited,,,,,,,,,DOPED_004784,,,Doped_Semiconductor,,,ZnO_Te,ZnO + Te @ 1.0e+16 cm^-3,,,Te,
Systematic_Generation,,5e+16,ZnO:Te_5.0e+16,,Inherited,,,,,,,,,DOPED_004785,,,Doped_Semiconductor,,,ZnO_Te,ZnO + Te @ 5.0e+16 cm^-3,,,Te,
Systematic_Generation,,1e+17,ZnO:Te_1.0e+17,,Inherited,,,,,,,,,DOPED_004786,,,Doped_Semiconductor,,,ZnO_Te,ZnO + Te @ 1.0e+17 cm^-3,,,Te,
Systematic_Generation,,5e+17,ZnO:Te_5.0e+17,,Inherited,,,,,,,,,DOPED_004787,,,Doped_Semiconductor,,,ZnO_Te,ZnO + Te @ 5.0e+17 cm^-3,,,Te,
Systematic_Generation,,1e+18,ZnO:Te_1.0e+18,,Inherited,,,,,,,,,DOPED_004788,,,Doped_Semiconductor,,,ZnO_Te,ZnO + Te @ 1.0e+18 cm^-3,,,Te,
Systematic_Generation,,5e+18,ZnO:Te_5.0e+18,,Inherited,,,,,,,,,DOPED_004789,,,Doped_Semiconductor,,,ZnO_Te,ZnO + Te @ 5.0e+18 cm^-3,,,Te,
Systematic_Generation,,1e+19,ZnO:Te_1.0e+19,,Inherited,,,,,,,,,DOPED_004790,,,Doped_Semiconductor,,,ZnO_Te,ZnO + Te @ 1.0e+19 cm^-3,,,Te,
Systematic_Generation,,5e+19,ZnO:Te_5.0e+19,,Inherited,,,,,,,,,DOPED_004791,,,Doped_Semiconductor,,,ZnO_Te,ZnO + Te @ 5.0e+19 cm^-3,,,Te,