source,n_elements,doping_concentration,name,termination,space_group,doping_level,volume_fraction,weight_percent,lattice_c,temperature,reinforcement,matrix,layers,material_id,molecular_weight,deposition_method,type,lattice_b,pdi,formula,composition,lattice_a,thickness_nm,dopant,substrate
Systematic_Generation,,,Mg80Zn20,,Pm-3m,,,,,,,,,ALLOY_002516,,,Binary_Alloy,,,Mg_0.80Zn_0.20,"Mg:80%, Zn:20%",2.903,,,
Systematic_Generation,,,Mg90Zn10,,Pm-3m,,,,,,,,,ALLOY_002517,,,Binary_Alloy,,,Mg_0.90Zn_0.10,"Mg:90%, Zn:10%",3.938,,,
Systematic_Generation,,,Mg10Si90,,Im-3m,,,,,,,,,ALLOY_002518,,,Binary_Alloy,,,Mg_0.10Si_0.90,"Mg:10%, Si:90%",3.914,,,
Systematic_Generation,,,Mg20Si80,,Fm-3m,,,,,,,,,ALLOY_002519,,,Binary_Alloy,,,Mg_0.20Si_0.80,"Mg:20%, Si:80%",3.204,,,
Systematic_Generation,,,Mg30Si70,,Fm-3m,,,,,,,,,ALLOY_002520,,,Binary_Alloy,,,Mg_0.30Si_0.70,"Mg:30%, Si:70%",4.256,,,
Systematic_Generation,,,Mg40Si60,,Pm-3m,,,,,,,,,ALLOY_002521,,,Binary_Alloy,,,Mg_0.40Si_0.60,"Mg:40%, Si:60%",4.231,,,
Systematic_Generation,,,Mg50Si50,,Pm-3m,,,,,,,,,ALLOY_002522,,,Binary_Alloy,,,Mg_0.50Si_0.50,"Mg:50%, Si:50%",4.473,,,
Systematic_Generation,,,Mg60Si40,,Pm-3m,,,,,,,,,ALLOY_002523,,,Binary_Alloy,,,Mg_0.60Si_0.40,"Mg:60%, Si:40%",4.22,,,
Systematic_Generation,,,Mg70Si30,,Im-3m,,,,,,,,,ALLOY_002524,,,Binary_Alloy,,,Mg_0.70Si_0.30,"Mg:70%, Si:30%",2.595,,,
Systematic_Generation,,,Mg80Si20,,P63/mmc,,,,,,,,,ALLOY_002525,,,Binary_Alloy,,,Mg_0.80Si_0.20,"Mg:80%, Si:20%",3.264,,,
Systematic_Generation,,,Mg90Si10,,P63/mmc,,,,,,,,,ALLOY_002526,,,Binary_Alloy,,,Mg_0.90Si_0.10,"Mg:90%, Si:10%",2.855,,,
Systematic_Generation,,,Mg10Mo90,,Pm-3m,,,,,,,,,ALLOY_002527,,,Binary_Alloy,,,Mg_0.10Mo_0.90,"Mg:10%, Mo:90%",2.951,,,
Systematic_Generation,,,Mg20Mo80,,Fm-3m,,,,,,,,,ALLOY_002528,,,Binary_Alloy,,,Mg_0.20Mo_0.80,"Mg:20%, Mo:80%",2.731,,,
Systematic_Generation,,,Mg30Mo70,,Fm-3m,,,,,,,,,ALLOY_002529,,,Binary_Alloy,,,Mg_0.30Mo_0.70,"Mg:30%, Mo:70%",2.703,,,
Systematic_Generation,,,Mg40Mo60,,Im-3m,,,,,,,,,ALLOY_002530,,,Binary_Alloy,,,Mg_0.40Mo_0.60,"Mg:40%, Mo:60%",4.145,,,
Systematic_Generation,,,Mg50Mo50,,Pm-3m,,,,,,,,,ALLOY_002531,,,Binary_Alloy,,,Mg_0.50Mo_0.50,"Mg:50%, Mo:50%",4.027,,,
Systematic_Generation,,,Mg60Mo40,,Im-3m,,,,,,,,,ALLOY_002532,,,Binary_Alloy,,,Mg_0.60Mo_0.40,"Mg:60%, Mo:40%",2.772,,,
Systematic_Generation,,,Mg70Mo30,,P63/mmc,,,,,,,,,ALLOY_002533,,,Binary_Alloy,,,Mg_0.70Mo_0.30,"Mg:70%, Mo:30%",3.236,,,
Systematic_Generation,,,Mg80Mo20,,P63/mmc,,,,,,,,,ALLOY_002534,,,Binary_Alloy,,,Mg_0.80Mo_0.20,"Mg:80%, Mo:20%",4.323,,,
Systematic_Generation,,,Mg90Mo10,,Pm-3m,,,,,,,,,ALLOY_002535,,,Binary_Alloy,,,Mg_0.90Mo_0.10,"Mg:90%, Mo:10%",3.991,,,
Systematic_Generation,,,Mg10W90,,Fm-3m,,,,,,,,,ALLOY_002536,,,Binary_Alloy,,,Mg_0.10W_0.90,"Mg:10%, W:90%",3.341,,,
Systematic_Generation,,,Mg20W80,,Im-3m,,,,,,,,,ALLOY_002537,,,Binary_Alloy,,,Mg_0.20W_0.80,"Mg:20%, W:80%",2.904,,,
Systematic_Generation,,,Mg30W70,,Pm-3m,,,,,,,,,ALLOY_002538,,,Binary_Alloy,,,Mg_0.30W_0.70,"Mg:30%, W:70%",2.86,,,
Systematic_Generation,,,Mg40W60,,Fm-3m,,,,,,,,,ALLOY_002539,,,Binary_Alloy,,,Mg_0.40W_0.60,"Mg:40%, W:60%",2.801,,,
Systematic_Generation,,,Mg50W50,,Pm-3m,,,,,,,,,ALLOY_002540,,,Binary_Alloy,,,Mg_0.50W_0.50,"Mg:50%, W:50%",4.347,,,
Systematic_Generation,,,Mg60W40,,Fm-3m,,,,,,,,,ALLOY_002541,,,Binary_Alloy,,,Mg_0.60W_0.40,"Mg:60%, W:40%",3.753,,,
Systematic_Generation,,,Mg70W30,,Fm-3m,,,,,,,,,ALLOY_002542,,,Binary_Alloy,,,Mg_0.70W_0.30,"Mg:70%, W:30%",2.688,,,
Systematic_Generation,,,Mg80W20,,P63/mmc,,,,,,,,,ALLOY_002543,,,Binary_Alloy,,,Mg_0.80W_0.20,"Mg:80%, W:20%",4.345,,,
Systematic_Generation,,,Mg90W10,,Fm-3m,,,,,,,,,ALLOY_002544,,,Binary_Alloy,,,Mg_0.90W_0.10,"Mg:90%, W:10%",3.831,,,
Systematic_Generation,,,Mg10V90,,P63/mmc,,,,,,,,,ALLOY_002545,,,Binary_Alloy,,,Mg_0.10V_0.90,"Mg:10%, V:90%",4.441,,,
Systematic_Generation,,,Mg20V80,,Fm-3m,,,,,,,,,ALLOY_002546,,,Binary_Alloy,,,Mg_0.20V_0.80,"Mg:20%, V:80%",3.745,,,
Systematic_Generation,,,Mg30V70,,Im-3m,,,,,,,,,ALLOY_002547,,,Binary_Alloy,,,Mg_0.30V_0.70,"Mg:30%, V:70%",3.367,,,
Systematic_Generation,,,Mg40V60,,P63/mmc,,,,,,,,,ALLOY_002548,,,Binary_Alloy,,,Mg_0.40V_0.60,"Mg:40%, V:60%",4.461,,,
Systematic_Generation,,,Mg50V50,,Im-3m,,,,,,,,,ALLOY_002549,,,Binary_Alloy,,,Mg_0.50V_0.50,"Mg:50%, V:50%",3.033,,,
Systematic_Generation,,,Mg60V40,,Fm-3m,,,,,,,,,ALLOY_002550,,,Binary_Alloy,,,Mg_0.60V_0.40,"Mg:60%, V:40%",3.673,,,
Systematic_Generation,,,Mg70V30,,P63/mmc,,,,,,,,,ALLOY_002551,,,Binary_Alloy,,,Mg_0.70V_0.30,"Mg:70%, V:30%",4.209,,,
Systematic_Generation,,,Mg80V20,,Im-3m,,,,,,,,,ALLOY_002552,,,Binary_Alloy,,,Mg_0.80V_0.20,"Mg:80%, V:20%",2.735,,,
Systematic_Generation,,,Mg90V10,,Im-3m,,,,,,,,,ALLOY_002553,,,Binary_Alloy,,,Mg_0.90V_0.10,"Mg:90%, V:10%",2.863,,,
Systematic_Generation,,,Mg10Nb90,,Pm-3m,,,,,,,,,ALLOY_002554,,,Binary_Alloy,,,Mg_0.10Nb_0.90,"Mg:10%, Nb:90%",4.481,,,
Systematic_Generation,,,Mg20Nb80,,Im-3m,,,,,,,,,ALLOY_002555,,,Binary_Alloy,,,Mg_0.20Nb_0.80,"Mg:20%, Nb:80%",3.35,,,
Systematic_Generation,,,Mg30Nb70,,Im-3m,,,,,,,,,ALLOY_002556,,,Binary_Alloy,,,Mg_0.30Nb_0.70,"Mg:30%, Nb:70%",3.131,,,
Systematic_Generation,,,Mg40Nb60,,Im-3m,,,,,,,,,ALLOY_002557,,,Binary_Alloy,,,Mg_0.40Nb_0.60,"Mg:40%, Nb:60%",3.055,,,
Systematic_Generation,,,Mg50Nb50,,P63/mmc,,,,,,,,,ALLOY_002558,,,Binary_Alloy,,,Mg_0.50Nb_0.50,"Mg:50%, Nb:50%",3.244,,,
Systematic_Generation,,,Mg60Nb40,,Im-3m,,,,,,,,,ALLOY_002559,,,Binary_Alloy,,,Mg_0.60Nb_0.40,"Mg:60%, Nb:40%",4.124,,,
Systematic_Generation,,,Mg70Nb30,,Im-3m,,,,,,,,,ALLOY_002560,,,Binary_Alloy,,,Mg_0.70Nb_0.30,"Mg:70%, Nb:30%",3.181,,,
Systematic_Generation,,,Mg80Nb20,,Im-3m,,,,,,,,,ALLOY_002561,,,Binary_Alloy,,,Mg_0.80Nb_0.20,"Mg:80%, Nb:20%",4.224,,,
Systematic_Generation,,,Mg90Nb10,,P63/mmc,,,,,,,,,ALLOY_002562,,,Binary_Alloy,,,Mg_0.90Nb_0.10,"Mg:90%, Nb:10%",3.945,,,
Systematic_Generation,,,Zn10Si90,,Pm-3m,,,,,,,,,ALLOY_002563,,,Binary_Alloy,,,Zn_0.10Si_0.90,"Zn:10%, Si:90%",3.758,,,
Systematic_Generation,,,Zn20Si80,,Im-3m,,,,,,,,,ALLOY_002564,,,Binary_Alloy,,,Zn_0.20Si_0.80,"Zn:20%, Si:80%",2.775,,,
Systematic_Generation,,,Zn30Si70,,P63/mmc,,,,,,,,,ALLOY_002565,,,Binary_Alloy,,,Zn_0.30Si_0.70,"Zn:30%, Si:70%",4.165,,,
Systematic_Generation,,,Zn40Si60,,Im-3m,,,,,,,,,ALLOY_002566,,,Binary_Alloy,,,Zn_0.40Si_0.60,"Zn:40%, Si:60%",4.372,,,
Systematic_Generation,,,Zn50Si50,,Fm-3m,,,,,,,,,ALLOY_002567,,,Binary_Alloy,,,Zn_0.50Si_0.50,"Zn:50%, Si:50%",3.964,,,
Systematic_Generation,,,Zn60Si40,,Pm-3m,,,,,,,,,ALLOY_002568,,,Binary_Alloy,,,Zn_0.60Si_0.40,"Zn:60%, Si:40%",3.184,,,
Systematic_Generation,,,Zn70Si30,,Im-3m,,,,,,,,,ALLOY_002569,,,Binary_Alloy,,,Zn_0.70Si_0.30,"Zn:70%, Si:30%",3.538,,,
Systematic_Generation,,,Zn80Si20,,Fm-3m,,,,,,,,,ALLOY_002570,,,Binary_Alloy,,,Zn_0.80Si_0.20,"Zn:80%, Si:20%",4.342,,,
Systematic_Generation,,,Zn90Si10,,Im-3m,,,,,,,,,ALLOY_002571,,,Binary_Alloy,,,Zn_0.90Si_0.10,"Zn:90%, Si:10%",3.169,,,
Systematic_Generation,,,Zn10Mo90,,Fm-3m,,,,,,,,,ALLOY_002572,,,Binary_Alloy,,,Zn_0.10Mo_0.90,"Zn:10%, Mo:90%",2.698,,,
Systematic_Generation,,,Zn20Mo80,,Im-3m,,,,,,,,,ALLOY_002573,,,Binary_Alloy,,,Zn_0.20Mo_0.80,"Zn:20%, Mo:80%",2.98,,,
Systematic_Generation,,,Zn30Mo70,,Im-3m,,,,,,,,,ALLOY_002574,,,Binary_Alloy,,,Zn_0.30Mo_0.70,"Zn:30%, Mo:70%",3.508,,,
Systematic_Generation,,,Zn40Mo60,,Pm-3m,,,,,,,,,ALLOY_002575,,,Binary_Alloy,,,Zn_0.40Mo_0.60,"Zn:40%, Mo:60%",2.635,,,
Systematic_Generation,,,Zn50Mo50,,Fm-3m,,,,,,,,,ALLOY_002576,,,Binary_Alloy,,,Zn_0.50Mo_0.50,"Zn:50%, Mo:50%",4.417,,,
Systematic_Generation,,,Zn60Mo40,,P63/mmc,,,,,,,,,ALLOY_002577,,,Binary_Alloy,,,Zn_0.60Mo_0.40,"Zn:60%, Mo:40%",3.902,,,
Systematic_Generation,,,Zn70Mo30,,P63/mmc,,,,,,,,,ALLOY_002578,,,Binary_Alloy,,,Zn_0.70Mo_0.30,"Zn:70%, Mo:30%",2.759,,,
Systematic_Generation,,,Zn80Mo20,,Im-3m,,,,,,,,,ALLOY_002579,,,Binary_Alloy,,,Zn_0.80Mo_0.20,"Zn:80%, Mo:20%",4.48,,,
Systematic_Generation,,,Zn90Mo10,,P63/mmc,,,,,,,,,ALLOY_002580,,,Binary_Alloy,,,Zn_0.90Mo_0.10,"Zn:90%, Mo:10%",4.141,,,
Systematic_Generation,,,Zn10W90,,Fm-3m,,,,,,,,,ALLOY_002581,,,Binary_Alloy,,,Zn_0.10W_0.90,"Zn:10%, W:90%",4.206,,,
Systematic_Generation,,,Zn20W80,,Im-3m,,,,,,,,,ALLOY_002582,,,Binary_Alloy,,,Zn_0.20W_0.80,"Zn:20%, W:80%",3.476,,,
Systematic_Generation,,,Zn30W70,,P63/mmc,,,,,,,,,ALLOY_002583,,,Binary_Alloy,,,Zn_0.30W_0.70,"Zn:30%, W:70%",3.072,,,
Systematic_Generation,,,Zn40W60,,P63/mmc,,,,,,,,,ALLOY_002584,,,Binary_Alloy,,,Zn_0.40W_0.60,"Zn:40%, W:60%",3.561,,,
Systematic_Generation,,,Zn50W50,,P63/mmc,,,,,,,,,ALLOY_002585,,,Binary_Alloy,,,Zn_0.50W_0.50,"Zn:50%, W:50%",3.963,,,
Systematic_Generation,,,Zn60W40,,Fm-3m,,,,,,,,,ALLOY_002586,,,Binary_Alloy,,,Zn_0.60W_0.40,"Zn:60%, W:40%",2.894,,,
Systematic_Generation,,,Zn70W30,,Im-3m,,,,,,,,,ALLOY_002587,,,Binary_Alloy,,,Zn_0.70W_0.30,"Zn:70%, W:30%",2.901,,,
Systematic_Generation,,,Zn80W20,,Pm-3m,,,,,,,,,ALLOY_002588,,,Binary_Alloy,,,Zn_0.80W_0.20,"Zn:80%, W:20%",3.493,,,
Systematic_Generation,,,Zn90W10,,Pm-3m,,,,,,,,,ALLOY_002589,,,Binary_Alloy,,,Zn_0.90W_0.10,"Zn:90%, W:10%",3.309,,,
Systematic_Generation,,,Zn10V90,,Im-3m,,,,,,,,,ALLOY_002590,,,Binary_Alloy,,,Zn_0.10V_0.90,"Zn:10%, V:90%",3.942,,,
Systematic_Generation,,,Zn20V80,,Im-3m,,,,,,,,,ALLOY_002591,,,Binary_Alloy,,,Zn_0.20V_0.80,"Zn:20%, V:80%",2.515,,,
Systematic_Generation,,,Zn30V70,,Pm-3m,,,,,,,,,ALLOY_002592,,,Binary_Alloy,,,Zn_0.30V_0.70,"Zn:30%, V:70%",4.18,,,
Systematic_Generation,,,Zn40V60,,P63/mmc,,,,,,,,,ALLOY_002593,,,Binary_Alloy,,,Zn_0.40V_0.60,"Zn:40%, V:60%",2.57,,,
Systematic_Generation,,,Zn50V50,,Im-3m,,,,,,,,,ALLOY_002594,,,Binary_Alloy,,,Zn_0.50V_0.50,"Zn:50%, V:50%",3.838,,,
Systematic_Generation,,,Zn60V40,,Pm-3m,,,,,,,,,ALLOY_002595,,,Binary_Alloy,,,Zn_0.60V_0.40,"Zn:60%, V:40%",4.376,,,
Systematic_Generation,,,Zn70V30,,Pm-3m,,,,,,,,,ALLOY_002596,,,Binary_Alloy,,,Zn_0.70V_0.30,"Zn:70%, V:30%",3.267,,,
Systematic_Generation,,,Zn80V20,,P63/mmc,,,,,,,,,ALLOY_002597,,,Binary_Alloy,,,Zn_0.80V_0.20,"Zn:80%, V:20%",4.319,,,
Systematic_Generation,,,Zn90V10,,P63/mmc,,,,,,,,,ALLOY_002598,,,Binary_Alloy,,,Zn_0.90V_0.10,"Zn:90%, V:10%",2.624,,,
Systematic_Generation,,,Zn10Nb90,,Fm-3m,,,,,,,,,ALLOY_002599,,,Binary_Alloy,,,Zn_0.10Nb_0.90,"Zn:10%, Nb:90%",4.166,,,
Systematic_Generation,,,Zn20Nb80,,Fm-3m,,,,,,,,,ALLOY_002600,,,Binary_Alloy,,,Zn_0.20Nb_0.80,"Zn:20%, Nb:80%",3.576,,,
Systematic_Generation,,,Zn30Nb70,,Fm-3m,,,,,,,,,ALLOY_002601,,,Binary_Alloy,,,Zn_0.30Nb_0.70,"Zn:30%, Nb:70%",3.232,,,
Systematic_Generation,,,Zn40Nb60,,Fm-3m,,,,,,,,,ALLOY_002602,,,Binary_Alloy,,,Zn_0.40Nb_0.60,"Zn:40%, Nb:60%",4.161,,,
Systematic_Generation,,,Zn50Nb50,,Im-3m,,,,,,,,,ALLOY_002603,,,Binary_Alloy,,,Zn_0.50Nb_0.50,"Zn:50%, Nb:50%",3.665,,,
Systematic_Generation,,,Zn60Nb40,,Fm-3m,,,,,,,,,ALLOY_002604,,,Binary_Alloy,,,Zn_0.60Nb_0.40,"Zn:60%, Nb:40%",2.546,,,
Systematic_Generation,,,Zn70Nb30,,P63/mmc,,,,,,,,,ALLOY_002605,,,Binary_Alloy,,,Zn_0.70Nb_0.30,"Zn:70%, Nb:30%",2.742,,,
Systematic_Generation,,,Zn80Nb20,,Im-3m,,,,,,,,,ALLOY_002606,,,Binary_Alloy,,,Zn_0.80Nb_0.20,"Zn:80%, Nb:20%",2.593,,,
Systematic_Generation,,,Zn90Nb10,,Fm-3m,,,,,,,,,ALLOY_002607,,,Binary_Alloy,,,Zn_0.90Nb_0.10,"Zn:90%, Nb:10%",3.013,,,
Systematic_Generation,,,Si10Mo90,,Im-3m,,,,,,,,,ALLOY_002608,,,Binary_Alloy,,,Si_0.10Mo_0.90,"Si:10%, Mo:90%",3.622,,,
Systematic_Generation,,,Si20Mo80,,Pm-3m,,,,,,,,,ALLOY_002609,,,Binary_Alloy,,,Si_0.20Mo_0.80,"Si:20%, Mo:80%",2.842,,,
Systematic_Generation,,,Si30Mo70,,P63/mmc,,,,,,,,,ALLOY_002610,,,Binary_Alloy,,,Si_0.30Mo_0.70,"Si:30%, Mo:70%",4.215,,,
Systematic_Generation,,,Si40Mo60,,Im-3m,,,,,,,,,ALLOY_002611,,,Binary_Alloy,,,Si_0.40Mo_0.60,"Si:40%, Mo:60%",3.277,,,
Systematic_Generation,,,Si50Mo50,,Fm-3m,,,,,,,,,ALLOY_002612,,,Binary_Alloy,,,Si_0.50Mo_0.50,"Si:50%, Mo:50%",3.906,,,
Systematic_Generation,,,Si60Mo40,,Fm-3m,,,,,,,,,ALLOY_002613,,,Binary_Alloy,,,Si_0.60Mo_0.40,"Si:60%, Mo:40%",4.131,,,
Systematic_Generation,,,Si70Mo30,,Fm-3m,,,,,,,,,ALLOY_002614,,,Binary_Alloy,,,Si_0.70Mo_0.30,"Si:70%, Mo:30%",4.224,,,
Systematic_Generation,,,Si80Mo20,,P63/mmc,,,,,,,,,ALLOY_002615,,,Binary_Alloy,,,Si_0.80Mo_0.20,"Si:80%, Mo:20%",4.139,,,
Systematic_Generation,,,Si90Mo10,,Fm-3m,,,,,,,,,ALLOY_002616,,,Binary_Alloy,,,Si_0.90Mo_0.10,"Si:90%, Mo:10%",2.785,,,
Systematic_Generation,,,Si10W90,,Im-3m,,,,,,,,,ALLOY_002617,,,Binary_Alloy,,,Si_0.10W_0.90,"Si:10%, W:90%",4.21,,,
Systematic_Generation,,,Si20W80,,Im-3m,,,,,,,,,ALLOY_002618,,,Binary_Alloy,,,Si_0.20W_0.80,"Si:20%, W:80%",4.064,,,
Systematic_Generation,,,Si30W70,,Im-3m,,,,,,,,,ALLOY_002619,,,Binary_Alloy,,,Si_0.30W_0.70,"Si:30%, W:70%",2.769,,,
Systematic_Generation,,,Si40W60,,Fm-3m,,,,,,,,,ALLOY_002620,,,Binary_Alloy,,,Si_0.40W_0.60,"Si:40%, W:60%",4.494,,,
Systematic_Generation,,,Si50W50,,Pm-3m,,,,,,,,,ALLOY_002621,,,Binary_Alloy,,,Si_0.50W_0.50,"Si:50%, W:50%",4.112,,,
Systematic_Generation,,,Si60W40,,Im-3m,,,,,,,,,ALLOY_002622,,,Binary_Alloy,,,Si_0.60W_0.40,"Si:60%, W:40%",3.966,,,
Systematic_Generation,,,Si70W30,,Fm-3m,,,,,,,,,ALLOY_002623,,,Binary_Alloy,,,Si_0.70W_0.30,"Si:70%, W:30%",2.604,,,
Systematic_Generation,,,Si80W20,,Fm-3m,,,,,,,,,ALLOY_002624,,,Binary_Alloy,,,Si_0.80W_0.20,"Si:80%, W:20%",3.523,,,
Systematic_Generation,,,Si90W10,,Im-3m,,,,,,,,,ALLOY_002625,,,Binary_Alloy,,,Si_0.90W_0.10,"Si:90%, W:10%",4.401,,,
Systematic_Generation,,,Si10V90,,P63/mmc,,,,,,,,,ALLOY_002626,,,Binary_Alloy,,,Si_0.10V_0.90,"Si:10%, V:90%",3.084,,,
Systematic_Generation,,,Si20V80,,Fm-3m,,,,,,,,,ALLOY_002627,,,Binary_Alloy,,,Si_0.20V_0.80,"Si:20%, V:80%",4.344,,,
Systematic_Generation,,,Si30V70,,Fm-3m,,,,,,,,,ALLOY_002628,,,Binary_Alloy,,,Si_0.30V_0.70,"Si:30%, V:70%",4.313,,,
Systematic_Generation,,,Si40V60,,Pm-3m,,,,,,,,,ALLOY_002629,,,Binary_Alloy,,,Si_0.40V_0.60,"Si:40%, V:60%",3.487,,,
Systematic_Generation,,,Si50V50,,Im-3m,,,,,,,,,ALLOY_002630,,,Binary_Alloy,,,Si_0.50V_0.50,"Si:50%, V:50%",4.137,,,
Systematic_Generation,,,Si60V40,,Im-3m,,,,,,,,,ALLOY_002631,,,Binary_Alloy,,,Si_0.60V_0.40,"Si:60%, V:40%",4.229,,,
Systematic_Generation,,,Si70V30,,Fm-3m,,,,,,,,,ALLOY_002632,,,Binary_Alloy,,,Si_0.70V_0.30,"Si:70%, V:30%",4.183,,,
Systematic_Generation,,,Si80V20,,P63/mmc,,,,,,,,,ALLOY_002633,,,Binary_Alloy,,,Si_0.80V_0.20,"Si:80%, V:20%",4.308,,,
Systematic_Generation,,,Si90V10,,P63/mmc,,,,,,,,,ALLOY_002634,,,Binary_Alloy,,,Si_0.90V_0.10,"Si:90%, V:10%",4.345,,,
Systematic_Generation,,,Si10Nb90,,Pm-3m,,,,,,,,,ALLOY_002635,,,Binary_Alloy,,,Si_0.10Nb_0.90,"Si:10%, Nb:90%",3.592,,,
Systematic_Generation,,,Si20Nb80,,Im-3m,,,,,,,,,ALLOY_002636,,,Binary_Alloy,,,Si_0.20Nb_0.80,"Si:20%, Nb:80%",3.169,,,
Systematic_Generation,,,Si30Nb70,,Im-3m,,,,,,,,,ALLOY_002637,,,Binary_Alloy,,,Si_0.30Nb_0.70,"Si:30%, Nb:70%",4.103,,,
Systematic_Generation,,,Si40Nb60,,Pm-3m,,,,,,,,,ALLOY_002638,,,Binary_Alloy,,,Si_0.40Nb_0.60,"Si:40%, Nb:60%",3.199,,,
Systematic_Generation,,,Si50Nb50,,Pm-3m,,,,,,,,,ALLOY_002639,,,Binary_Alloy,,,Si_0.50Nb_0.50,"Si:50%, Nb:50%",3.628,,,
Systematic_Generation,,,Si60Nb40,,Im-3m,,,,,,,,,ALLOY_002640,,,Binary_Alloy,,,Si_0.60Nb_0.40,"Si:60%, Nb:40%",3.132,,,
Systematic_Generation,,,Si70Nb30,,Fm-3m,,,,,,,,,ALLOY_002641,,,Binary_Alloy,,,Si_0.70Nb_0.30,"Si:70%, Nb:30%",2.648,,,
Systematic_Generation,,,Si80Nb20,,P63/mmc,,,,,,,,,ALLOY_002642,,,Binary_Alloy,,,Si_0.80Nb_0.20,"Si:80%, Nb:20%",3.707,,,
Systematic_Generation,,,Si90Nb10,,Im-3m,,,,,,,,,ALLOY_002643,,,Binary_Alloy,,,Si_0.90Nb_0.10,"Si:90%, Nb:10%",3.357,,,
Systematic_Generation,,,Mo10W90,,Fm-3m,,,,,,,,,ALLOY_002644,,,Binary_Alloy,,,Mo_0.10W_0.90,"Mo:10%, W:90%",4.205,,,
Systematic_Generation,,,Mo20W80,,Fm-3m,,,,,,,,,ALLOY_002645,,,Binary_Alloy,,,Mo_0.20W_0.80,"Mo:20%, W:80%",2.61,,,
Systematic_Generation,,,Mo30W70,,Pm-3m,,,,,,,,,ALLOY_002646,,,Binary_Alloy,,,Mo_0.30W_0.70,"Mo:30%, W:70%",3.191,,,
Systematic_Generation,,,Mo40W60,,Im-3m,,,,,,,,,ALLOY_002647,,,Binary_Alloy,,,Mo_0.40W_0.60,"Mo:40%, W:60%",2.755,,,
Systematic_Generation,,,Mo50W50,,Im-3m,,,,,,,,,ALLOY_002648,,,Binary_Alloy,,,Mo_0.50W_0.50,"Mo:50%, W:50%",2.694,,,
Systematic_Generation,,,Mo60W40,,P63/mmc,,,,,,,,,ALLOY_002649,,,Binary_Alloy,,,Mo_0.60W_0.40,"Mo:60%, W:40%",3.457,,,
Systematic_Generation,,,Mo70W30,,Fm-3m,,,,,,,,,ALLOY_002650,,,Binary_Alloy,,,Mo_0.70W_0.30,"Mo:70%, W:30%",4.115,,,
Systematic_Generation,,,Mo80W20,,Im-3m,,,,,,,,,ALLOY_002651,,,Binary_Alloy,,,Mo_0.80W_0.20,"Mo:80%, W:20%",2.621,,,
Systematic_Generation,,,Mo90W10,,Fm-3m,,,,,,,,,ALLOY_002652,,,Binary_Alloy,,,Mo_0.90W_0.10,"Mo:90%, W:10%",3.712,,,
Systematic_Generation,,,Mo10V90,,Pm-3m,,,,,,,,,ALLOY_002653,,,Binary_Alloy,,,Mo_0.10V_0.90,"Mo:10%, V:90%",4.3,,,
Systematic_Generation,,,Mo20V80,,P63/mmc,,,,,,,,,ALLOY_002654,,,Binary_Alloy,,,Mo_0.20V_0.80,"Mo:20%, V:80%",2.89,,,
Systematic_Generation,,,Mo30V70,,Im-3m,,,,,,,,,ALLOY_002655,,,Binary_Alloy,,,Mo_0.30V_0.70,"Mo:30%, V:70%",2.697,,,
Systematic_Generation,,,Mo40V60,,P63/mmc,,,,,,,,,ALLOY_002656,,,Binary_Alloy,,,Mo_0.40V_0.60,"Mo:40%, V:60%",3.175,,,
Systematic_Generation,,,Mo50V50,,Im-3m,,,,,,,,,ALLOY_002657,,,Binary_Alloy,,,Mo_0.50V_0.50,"Mo:50%, V:50%",2.992,,,
Systematic_Generation,,,Mo60V40,,Fm-3m,,,,,,,,,ALLOY_002658,,,Binary_Alloy,,,Mo_0.60V_0.40,"Mo:60%, V:40%",4.406,,,
Systematic_Generation,,,Mo70V30,,P63/mmc,,,,,,,,,ALLOY_002659,,,Binary_Alloy,,,Mo_0.70V_0.30,"Mo:70%, V:30%",3.53,,,
Systematic_Generation,,,Mo80V20,,Pm-3m,,,,,,,,,ALLOY_002660,,,Binary_Alloy,,,Mo_0.80V_0.20,"Mo:80%, V:20%",4.038,,,
Systematic_Generation,,,Mo90V10,,Im-3m,,,,,,,,,ALLOY_002661,,,Binary_Alloy,,,Mo_0.90V_0.10,"Mo:90%, V:10%",2.849,,,
Systematic_Generation,,,Mo10Nb90,,Pm-3m,,,,,,,,,ALLOY_002662,,,Binary_Alloy,,,Mo_0.10Nb_0.90,"Mo:10%, Nb:90%",4.101,,,
Systematic_Generation,,,Mo20Nb80,,Pm-3m,,,,,,,,,ALLOY_002663,,,Binary_Alloy,,,Mo_0.20Nb_0.80,"Mo:20%, Nb:80%",2.786,,,
Systematic_Generation,,,Mo30Nb70,,Im-3m,,,,,,,,,ALLOY_002664,,,Binary_Alloy,,,Mo_0.30Nb_0.70,"Mo:30%, Nb:70%",3.607,,,
Systematic_Generation,,,Mo40Nb60,,Fm-3m,,,,,,,,,ALLOY_002665,,,Binary_Alloy,,,Mo_0.40Nb_0.60,"Mo:40%, Nb:60%",2.977,,,
Systematic_Generation,,,Mo50Nb50,,Fm-3m,,,,,,,,,ALLOY_002666,,,Binary_Alloy,,,Mo_0.50Nb_0.50,"Mo:50%, Nb:50%",3.884,,,
Systematic_Generation,,,Mo60Nb40,,P63/mmc,,,,,,,,,ALLOY_002667,,,Binary_Alloy,,,Mo_0.60Nb_0.40,"Mo:60%, Nb:40%",4.114,,,
Systematic_Generation,,,Mo70Nb30,,Fm-3m,,,,,,,,,ALLOY_002668,,,Binary_Alloy,,,Mo_0.70Nb_0.30,"Mo:70%, Nb:30%",4.145,,,
Systematic_Generation,,,Mo80Nb20,,Pm-3m,,,,,,,,,ALLOY_002669,,,Binary_Alloy,,,Mo_0.80Nb_0.20,"Mo:80%, Nb:20%",4.049,,,
Systematic_Generation,,,Mo90Nb10,,Fm-3m,,,,,,,,,ALLOY_002670,,,Binary_Alloy,,,Mo_0.90Nb_0.10,"Mo:90%, Nb:10%",2.62,,,
Systematic_Generation,,,W10V90,,Im-3m,,,,,,,,,ALLOY_002671,,,Binary_Alloy,,,W_0.10V_0.90,"W:10%, V:90%",2.71,,,
Systematic_Generation,,,W20V80,,Im-3m,,,,,,,,,ALLOY_002672,,,Binary_Alloy,,,W_0.20V_0.80,"W:20%, V:80%",2.826,,,
Systematic_Generation,,,W30V70,,Pm-3m,,,,,,,,,ALLOY_002673,,,Binary_Alloy,,,W_0.30V_0.70,"W:30%, V:70%",3.585,,,
Systematic_Generation,,,W40V60,,Fm-3m,,,,,,,,,ALLOY_002674,,,Binary_Alloy,,,W_0.40V_0.60,"W:40%, V:60%",3.661,,,
Systematic_Generation,,,W50V50,,Fm-3m,,,,,,,,,ALLOY_002675,,,Binary_Alloy,,,W_0.50V_0.50,"W:50%, V:50%",4.413,,,
Systematic_Generation,,,W60V40,,Fm-3m,,,,,,,,,ALLOY_002676,,,Binary_Alloy,,,W_0.60V_0.40,"W:60%, V:40%",2.709,,,
Systematic_Generation,,,W70V30,,Pm-3m,,,,,,,,,ALLOY_002677,,,Binary_Alloy,,,W_0.70V_0.30,"W:70%, V:30%",3.102,,,
Systematic_Generation,,,W80V20,,Pm-3m,,,,,,,,,ALLOY_002678,,,Binary_Alloy,,,W_0.80V_0.20,"W:80%, V:20%",2.831,,,
Systematic_Generation,,,W90V10,,Pm-3m,,,,,,,,,ALLOY_002679,,,Binary_Alloy,,,W_0.90V_0.10,"W:90%, V:10%",3.14,,,
Systematic_Generation,,,W10Nb90,,P63/mmc,,,,,,,,,ALLOY_002680,,,Binary_Alloy,,,W_0.10Nb_0.90,"W:10%, Nb:90%",3.169,,,
Systematic_Generation,,,W20Nb80,,Im-3m,,,,,,,,,ALLOY_002681,,,Binary_Alloy,,,W_0.20Nb_0.80,"W:20%, Nb:80%",3.338,,,
Systematic_Generation,,,W30Nb70,,Fm-3m,,,,,,,,,ALLOY_002682,,,Binary_Alloy,,,W_0.30Nb_0.70,"W:30%, Nb:70%",3.4,,,