source,n_elements,doping_concentration,name,termination,space_group,doping_level,volume_fraction,weight_percent,lattice_c,temperature,reinforcement,matrix,layers,material_id,molecular_weight,deposition_method,type,lattice_b,pdi,formula,composition,lattice_a,thickness_nm,dopant,substrate
Systematic_Generation,,,Nd2MoCoO6,,Fm-3m,,,,8.118,,,,,DPERO_001688,,,Double_Perovskite,8.19,,Nd2MoCoO6,"Nd:2, Mo:1, Co:1, O:6",8.013,,,
Systematic_Generation,,,MgAl2O4,,Fd-3m,,,,8.453,,,,,SPIN_001689,,,Spinel,8.269,,MgAl2O4,"Mg:1, Al:2, O:4",8.523,,,
Systematic_Generation,,,MgFe2O4,,Fd-3m,,,,8.11,,,,,SPIN_001690,,,Spinel,8.617,,MgFe2O4,"Mg:1, Fe:2, O:4",8.302,,,
Systematic_Generation,,,MgCr2O4,,Fd-3m,,,,8.669,,,,,SPIN_001691,,,Spinel,8.111,,MgCr2O4,"Mg:1, Cr:2, O:4",8.615,,,
Systematic_Generation,,,MgMn2O4,,Fd-3m,,,,8.1,,,,,SPIN_001692,,,Spinel,8.677,,MgMn2O4,"Mg:1, Mn:2, O:4",8.421,,,
Systematic_Generation,,,MgCo2O4,,Fd-3m,,,,8.146,,,,,SPIN_001693,,,Spinel,8.022,,MgCo2O4,"Mg:1, Co:2, O:4",8.34,,,
Systematic_Generation,,,MgNi2O4,,Fd-3m,,,,8.222,,,,,SPIN_001694,,,Spinel,8.25,,MgNi2O4,"Mg:1, Ni:2, O:4",8.491,,,
Systematic_Generation,,,MgTi2O4,,Fd-3m,,,,8.493,,,,,SPIN_001695,,,Spinel,8.678,,MgTi2O4,"Mg:1, Ti:2, O:4",8.197,,,
Systematic_Generation,,,MgV2O4,,Fd-3m,,,,8.054,,,,,SPIN_001696,,,Spinel,8.272,,MgV2O4,"Mg:1, V:2, O:4",8.619,,,
Systematic_Generation,,,FeAl2O4,,Fd-3m,,,,8.639,,,,,SPIN_001697,,,Spinel,8.524,,FeAl2O4,"Fe:1, Al:2, O:4",8.011,,,
Systematic_Generation,,,FeFe2O4,,Fd-3m,,,,8.001,,,,,SPIN_001698,,,Spinel,8.092,,FeFe2O4,"Fe:1, Fe:2, O:4",8.154,,,
Systematic_Generation,,,FeCr2O4,,Fd-3m,,,,8.58,,,,,SPIN_001699,,,Spinel,8.455,,FeCr2O4,"Fe:1, Cr:2, O:4",8.122,,,
Systematic_Generation,,,FeMn2O4,,Fd-3m,,,,8.388,,,,,SPIN_001700,,,Spinel,8.244,,FeMn2O4,"Fe:1, Mn:2, O:4",8.27,,,
Systematic_Generation,,,FeCo2O4,,Fd-3m,,,,8.284,,,,,SPIN_001701,,,Spinel,8.031,,FeCo2O4,"Fe:1, Co:2, O:4",8.666,,,
Systematic_Generation,,,FeNi2O4,,Fd-3m,,,,8.383,,,,,SPIN_001702,,,Spinel,8.223,,FeNi2O4,"Fe:1, Ni:2, O:4",8.368,,,
Systematic_Generation,,,FeTi2O4,,Fd-3m,,,,8.116,,,,,SPIN_001703,,,Spinel,8.321,,FeTi2O4,"Fe:1, Ti:2, O:4",8.668,,,
Systematic_Generation,,,FeV2O4,,Fd-3m,,,,8.465,,,,,SPIN_001704,,,Spinel,8.675,,FeV2O4,"Fe:1, V:2, O:4",8.686,,,
Systematic_Generation,,,CoAl2O4,,Fd-3m,,,,8.692,,,,,SPIN_001705,,,Spinel,8.426,,CoAl2O4,"Co:1, Al:2, O:4",8.344,,,
Systematic_Generation,,,CoFe2O4,,Fd-3m,,,,8.553,,,,,SPIN_001706,,,Spinel,8.021,,CoFe2O4,"Co:1, Fe:2, O:4",8.655,,,
Systematic_Generation,,,CoCr2O4,,Fd-3m,,,,8.358,,,,,SPIN_001707,,,Spinel,8.505,,CoCr2O4,"Co:1, Cr:2, O:4",8.181,,,
Systematic_Generation,,,CoMn2O4,,Fd-3m,,,,8.056,,,,,SPIN_001708,,,Spinel,8.5,,CoMn2O4,"Co:1, Mn:2, O:4",8.667,,,
Systematic_Generation,,,CoCo2O4,,Fd-3m,,,,8.209,,,,,SPIN_001709,,,Spinel,8.525,,CoCo2O4,"Co:1, Co:2, O:4",8.525,,,
Systematic_Generation,,,CoNi2O4,,Fd-3m,,,,8.345,,,,,SPIN_001710,,,Spinel,8.581,,CoNi2O4,"Co:1, Ni:2, O:4",8.665,,,
Systematic_Generation,,,CoTi2O4,,Fd-3m,,,,8.276,,,,,SPIN_001711,,,Spinel,8.019,,CoTi2O4,"Co:1, Ti:2, O:4",8.518,,,
Systematic_Generation,,,CoV2O4,,Fd-3m,,,,8.675,,,,,SPIN_001712,,,Spinel,8.049,,CoV2O4,"Co:1, V:2, O:4",8.545,,,
Systematic_Generation,,,NiAl2O4,,Fd-3m,,,,8.018,,,,,SPIN_001713,,,Spinel,8.644,,NiAl2O4,"Ni:1, Al:2, O:4",8.381,,,
Systematic_Generation,,,NiFe2O4,,Fd-3m,,,,8.502,,,,,SPIN_001714,,,Spinel,8.639,,NiFe2O4,"Ni:1, Fe:2, O:4",8.025,,,
Systematic_Generation,,,NiCr2O4,,Fd-3m,,,,8.679,,,,,SPIN_001715,,,Spinel,8.525,,NiCr2O4,"Ni:1, Cr:2, O:4",8.22,,,
Systematic_Generation,,,NiMn2O4,,Fd-3m,,,,8.469,,,,,SPIN_001716,,,Spinel,8.056,,NiMn2O4,"Ni:1, Mn:2, O:4",8.287,,,
Systematic_Generation,,,NiCo2O4,,Fd-3m,,,,8.134,,,,,SPIN_001717,,,Spinel,8.098,,NiCo2O4,"Ni:1, Co:2, O:4",8.016,,,
Systematic_Generation,,,NiNi2O4,,Fd-3m,,,,8.154,,,,,SPIN_001718,,,Spinel,8.491,,NiNi2O4,"Ni:1, Ni:2, O:4",8.153,,,
Systematic_Generation,,,NiTi2O4,,Fd-3m,,,,8.142,,,,,SPIN_001719,,,Spinel,8.691,,NiTi2O4,"Ni:1, Ti:2, O:4",8.2,,,
Systematic_Generation,,,NiV2O4,,Fd-3m,,,,8.393,,,,,SPIN_001720,,,Spinel,8.231,,NiV2O4,"Ni:1, V:2, O:4",8.28,,,
Systematic_Generation,,,CuAl2O4,,Fd-3m,,,,8.577,,,,,SPIN_001721,,,Spinel,8.318,,CuAl2O4,"Cu:1, Al:2, O:4",8.434,,,
Systematic_Generation,,,CuFe2O4,,Fd-3m,,,,8.49,,,,,SPIN_001722,,,Spinel,8.491,,CuFe2O4,"Cu:1, Fe:2, O:4",8.117,,,
Systematic_Generation,,,CuCr2O4,,Fd-3m,,,,8.635,,,,,SPIN_001723,,,Spinel,8.415,,CuCr2O4,"Cu:1, Cr:2, O:4",8.169,,,
Systematic_Generation,,,CuMn2O4,,Fd-3m,,,,8.506,,,,,SPIN_001724,,,Spinel,8.21,,CuMn2O4,"Cu:1, Mn:2, O:4",8.402,,,
Systematic_Generation,,,CuCo2O4,,Fd-3m,,,,8.097,,,,,SPIN_001725,,,Spinel,8.471,,CuCo2O4,"Cu:1, Co:2, O:4",8.5,,,
Systematic_Generation,,,CuNi2O4,,Fd-3m,,,,8.008,,,,,SPIN_001726,,,Spinel,8.429,,CuNi2O4,"Cu:1, Ni:2, O:4",8.329,,,
Systematic_Generation,,,CuTi2O4,,Fd-3m,,,,8.22,,,,,SPIN_001727,,,Spinel,8.327,,CuTi2O4,"Cu:1, Ti:2, O:4",8.524,,,
Systematic_Generation,,,CuV2O4,,Fd-3m,,,,8.508,,,,,SPIN_001728,,,Spinel,8.438,,CuV2O4,"Cu:1, V:2, O:4",8.319,,,
Systematic_Generation,,,ZnAl2O4,,Fd-3m,,,,8.027,,,,,SPIN_001729,,,Spinel,8.186,,ZnAl2O4,"Zn:1, Al:2, O:4",8.392,,,
Systematic_Generation,,,ZnFe2O4,,Fd-3m,,,,8.065,,,,,SPIN_001730,,,Spinel,8.174,,ZnFe2O4,"Zn:1, Fe:2, O:4",8.116,,,
Systematic_Generation,,,ZnCr2O4,,Fd-3m,,,,8.425,,,,,SPIN_001731,,,Spinel,8.526,,ZnCr2O4,"Zn:1, Cr:2, O:4",8.695,,,
Systematic_Generation,,,ZnMn2O4,,Fd-3m,,,,8.47,,,,,SPIN_001732,,,Spinel,8.213,,ZnMn2O4,"Zn:1, Mn:2, O:4",8.684,,,
Systematic_Generation,,,ZnCo2O4,,Fd-3m,,,,8.264,,,,,SPIN_001733,,,Spinel,8.007,,ZnCo2O4,"Zn:1, Co:2, O:4",8.096,,,
Systematic_Generation,,,ZnNi2O4,,Fd-3m,,,,8.542,,,,,SPIN_001734,,,Spinel,8.501,,ZnNi2O4,"Zn:1, Ni:2, O:4",8.483,,,
Systematic_Generation,,,ZnTi2O4,,Fd-3m,,,,8.027,,,,,SPIN_001735,,,Spinel,8.568,,ZnTi2O4,"Zn:1, Ti:2, O:4",8.554,,,
Systematic_Generation,,,ZnV2O4,,Fd-3m,,,,8.673,,,,,SPIN_001736,,,Spinel,8.422,,ZnV2O4,"Zn:1, V:2, O:4",8.395,,,
Systematic_Generation,,,MnAl2O4,,Fd-3m,,,,8.482,,,,,SPIN_001737,,,Spinel,8.681,,MnAl2O4,"Mn:1, Al:2, O:4",8.663,,,
Systematic_Generation,,,MnFe2O4,,Fd-3m,,,,8.264,,,,,SPIN_001738,,,Spinel,8.619,,MnFe2O4,"Mn:1, Fe:2, O:4",8.34,,,
Systematic_Generation,,,MnCr2O4,,Fd-3m,,,,8.011,,,,,SPIN_001739,,,Spinel,8.362,,MnCr2O4,"Mn:1, Cr:2, O:4",8.293,,,
Systematic_Generation,,,MnMn2O4,,Fd-3m,,,,8.562,,,,,SPIN_001740,,,Spinel,8.045,,MnMn2O4,"Mn:1, Mn:2, O:4",8.113,,,
Systematic_Generation,,,MnCo2O4,,Fd-3m,,,,8.366,,,,,SPIN_001741,,,Spinel,8.149,,MnCo2O4,"Mn:1, Co:2, O:4",8.609,,,
Systematic_Generation,,,MnNi2O4,,Fd-3m,,,,8.233,,,,,SPIN_001742,,,Spinel,8.348,,MnNi2O4,"Mn:1, Ni:2, O:4",8.287,,,
Systematic_Generation,,,MnTi2O4,,Fd-3m,,,,8.606,,,,,SPIN_001743,,,Spinel,8.219,,MnTi2O4,"Mn:1, Ti:2, O:4",8.569,,,
Systematic_Generation,,,MnV2O4,,Fd-3m,,,,8.695,,,,,SPIN_001744,,,Spinel,8.258,,MnV2O4,"Mn:1, V:2, O:4",8.572,,,
Systematic_Generation,,,CdAl2O4,,Fd-3m,,,,8.6,,,,,SPIN_001745,,,Spinel,8.486,,CdAl2O4,"Cd:1, Al:2, O:4",8.175,,,
Systematic_Generation,,,CdFe2O4,,Fd-3m,,,,8.192,,,,,SPIN_001746,,,Spinel,8.136,,CdFe2O4,"Cd:1, Fe:2, O:4",8.122,,,
Systematic_Generation,,,CdCr2O4,,Fd-3m,,,,8.593,,,,,SPIN_001747,,,Spinel,8.487,,CdCr2O4,"Cd:1, Cr:2, O:4",8.426,,,
Systematic_Generation,,,CdMn2O4,,Fd-3m,,,,8.693,,,,,SPIN_001748,,,Spinel,8.242,,CdMn2O4,"Cd:1, Mn:2, O:4",8.516,,,
Systematic_Generation,,,CdCo2O4,,Fd-3m,,,,8.137,,,,,SPIN_001749,,,Spinel,8.162,,CdCo2O4,"Cd:1, Co:2, O:4",8.146,,,
Systematic_Generation,,,CdNi2O4,,Fd-3m,,,,8.035,,,,,SPIN_001750,,,Spinel,8.223,,CdNi2O4,"Cd:1, Ni:2, O:4",8.477,,,
Systematic_Generation,,,CdTi2O4,,Fd-3m,,,,8.584,,,,,SPIN_001751,,,Spinel,8.171,,CdTi2O4,"Cd:1, Ti:2, O:4",8.429,,,
Systematic_Generation,,,CdV2O4,,Fd-3m,,,,8.377,,,,,SPIN_001752,,,Spinel,8.525,,CdV2O4,"Cd:1, V:2, O:4",8.399,,,
Systematic_Generation,,,Al10Cu90,,Pm-3m,,,,,,,,,ALLOY_001753,,,Binary_Alloy,,,Al_0.10Cu_0.90,"Al:10%, Cu:90%",3.904,,,
Systematic_Generation,,,Al20Cu80,,Pm-3m,,,,,,,,,ALLOY_001754,,,Binary_Alloy,,,Al_0.20Cu_0.80,"Al:20%, Cu:80%",2.982,,,
Systematic_Generation,,,Al30Cu70,,Fm-3m,,,,,,,,,ALLOY_001755,,,Binary_Alloy,,,Al_0.30Cu_0.70,"Al:30%, Cu:70%",3.223,,,
Systematic_Generation,,,Al40Cu60,,Pm-3m,,,,,,,,,ALLOY_001756,,,Binary_Alloy,,,Al_0.40Cu_0.60,"Al:40%, Cu:60%",2.943,,,
Systematic_Generation,,,Al50Cu50,,Pm-3m,,,,,,,,,ALLOY_001757,,,Binary_Alloy,,,Al_0.50Cu_0.50,"Al:50%, Cu:50%",4.155,,,
Systematic_Generation,,,Al60Cu40,,Pm-3m,,,,,,,,,ALLOY_001758,,,Binary_Alloy,,,Al_0.60Cu_0.40,"Al:60%, Cu:40%",4.333,,,
Systematic_Generation,,,Al70Cu30,,Pm-3m,,,,,,,,,ALLOY_001759,,,Binary_Alloy,,,Al_0.70Cu_0.30,"Al:70%, Cu:30%",4.426,,,
Systematic_Generation,,,Al80Cu20,,P63/mmc,,,,,,,,,ALLOY_001760,,,Binary_Alloy,,,Al_0.80Cu_0.20,"Al:80%, Cu:20%",2.838,,,
Systematic_Generation,,,Al90Cu10,,Im-3m,,,,,,,,,ALLOY_001761,,,Binary_Alloy,,,Al_0.90Cu_0.10,"Al:90%, Cu:10%",3.634,,,
Systematic_Generation,,,Al10Fe90,,P63/mmc,,,,,,,,,ALLOY_001762,,,Binary_Alloy,,,Al_0.10Fe_0.90,"Al:10%, Fe:90%",3.393,,,
Systematic_Generation,,,Al20Fe80,,Im-3m,,,,,,,,,ALLOY_001763,,,Binary_Alloy,,,Al_0.20Fe_0.80,"Al:20%, Fe:80%",3.524,,,
Systematic_Generation,,,Al30Fe70,,P63/mmc,,,,,,,,,ALLOY_001764,,,Binary_Alloy,,,Al_0.30Fe_0.70,"Al:30%, Fe:70%",2.832,,,
Systematic_Generation,,,Al40Fe60,,Fm-3m,,,,,,,,,ALLOY_001765,,,Binary_Alloy,,,Al_0.40Fe_0.60,"Al:40%, Fe:60%",4.206,,,
Systematic_Generation,,,Al50Fe50,,Im-3m,,,,,,,,,ALLOY_001766,,,Binary_Alloy,,,Al_0.50Fe_0.50,"Al:50%, Fe:50%",3.093,,,
Systematic_Generation,,,Al60Fe40,,Im-3m,,,,,,,,,ALLOY_001767,,,Binary_Alloy,,,Al_0.60Fe_0.40,"Al:60%, Fe:40%",3.822,,,
Systematic_Generation,,,Al70Fe30,,Pm-3m,,,,,,,,,ALLOY_001768,,,Binary_Alloy,,,Al_0.70Fe_0.30,"Al:70%, Fe:30%",2.864,,,
Systematic_Generation,,,Al80Fe20,,Fm-3m,,,,,,,,,ALLOY_001769,,,Binary_Alloy,,,Al_0.80Fe_0.20,"Al:80%, Fe:20%",2.902,,,
Systematic_Generation,,,Al90Fe10,,P63/mmc,,,,,,,,,ALLOY_001770,,,Binary_Alloy,,,Al_0.90Fe_0.10,"Al:90%, Fe:10%",4.394,,,
Systematic_Generation,,,Al10Ni90,,Im-3m,,,,,,,,,ALLOY_001771,,,Binary_Alloy,,,Al_0.10Ni_0.90,"Al:10%, Ni:90%",2.786,,,
Systematic_Generation,,,Al20Ni80,,P63/mmc,,,,,,,,,ALLOY_001772,,,Binary_Alloy,,,Al_0.20Ni_0.80,"Al:20%, Ni:80%",3.586,,,
Systematic_Generation,,,Al30Ni70,,Pm-3m,,,,,,,,,ALLOY_001773,,,Binary_Alloy,,,Al_0.30Ni_0.70,"Al:30%, Ni:70%",4.161,,,
Systematic_Generation,,,Al40Ni60,,Im-3m,,,,,,,,,ALLOY_001774,,,Binary_Alloy,,,Al_0.40Ni_0.60,"Al:40%, Ni:60%",2.764,,,
Systematic_Generation,,,Al50Ni50,,Im-3m,,,,,,,,,ALLOY_001775,,,Binary_Alloy,,,Al_0.50Ni_0.50,"Al:50%, Ni:50%",4.375,,,
Systematic_Generation,,,Al60Ni40,,Pm-3m,,,,,,,,,ALLOY_001776,,,Binary_Alloy,,,Al_0.60Ni_0.40,"Al:60%, Ni:40%",2.888,,,
Systematic_Generation,,,Al70Ni30,,Pm-3m,,,,,,,,,ALLOY_001777,,,Binary_Alloy,,,Al_0.70Ni_0.30,"Al:70%, Ni:30%",2.595,,,
Systematic_Generation,,,Al80Ni20,,Fm-3m,,,,,,,,,ALLOY_001778,,,Binary_Alloy,,,Al_0.80Ni_0.20,"Al:80%, Ni:20%",4.091,,,
Systematic_Generation,,,Al90Ni10,,Im-3m,,,,,,,,,ALLOY_001779,,,Binary_Alloy,,,Al_0.90Ni_0.10,"Al:90%, Ni:10%",3.945,,,
Systematic_Generation,,,Al10Ti90,,Pm-3m,,,,,,,,,ALLOY_001780,,,Binary_Alloy,,,Al_0.10Ti_0.90,"Al:10%, Ti:90%",2.752,,,
Systematic_Generation,,,Al20Ti80,,Pm-3m,,,,,,,,,ALLOY_001781,,,Binary_Alloy,,,Al_0.20Ti_0.80,"Al:20%, Ti:80%",3.088,,,
Systematic_Generation,,,Al30Ti70,,Pm-3m,,,,,,,,,ALLOY_001782,,,Binary_Alloy,,,Al_0.30Ti_0.70,"Al:30%, Ti:70%",2.784,,,
Systematic_Generation,,,Al40Ti60,,P63/mmc,,,,,,,,,ALLOY_001783,,,Binary_Alloy,,,Al_0.40Ti_0.60,"Al:40%, Ti:60%",3.991,,,
Systematic_Generation,,,Al50Ti50,,Fm-3m,,,,,,,,,ALLOY_001784,,,Binary_Alloy,,,Al_0.50Ti_0.50,"Al:50%, Ti:50%",3.703,,,
Systematic_Generation,,,Al60Ti40,,P63/mmc,,,,,,,,,ALLOY_001785,,,Binary_Alloy,,,Al_0.60Ti_0.40,"Al:60%, Ti:40%",3.71,,,
Systematic_Generation,,,Al70Ti30,,P63/mmc,,,,,,,,,ALLOY_001786,,,Binary_Alloy,,,Al_0.70Ti_0.30,"Al:70%, Ti:30%",3.201,,,
Systematic_Generation,,,Al80Ti20,,Fm-3m,,,,,,,,,ALLOY_001787,,,Binary_Alloy,,,Al_0.80Ti_0.20,"Al:80%, Ti:20%",3.282,,,
Systematic_Generation,,,Al90Ti10,,Pm-3m,,,,,,,,,ALLOY_001788,,,Binary_Alloy,,,Al_0.90Ti_0.10,"Al:90%, Ti:10%",3.528,,,
Systematic_Generation,,,Al10Cr90,,Im-3m,,,,,,,,,ALLOY_001789,,,Binary_Alloy,,,Al_0.10Cr_0.90,"Al:10%, Cr:90%",2.852,,,
Systematic_Generation,,,Al20Cr80,,Pm-3m,,,,,,,,,ALLOY_001790,,,Binary_Alloy,,,Al_0.20Cr_0.80,"Al:20%, Cr:80%",3.173,,,
Systematic_Generation,,,Al30Cr70,,Fm-3m,,,,,,,,,ALLOY_001791,,,Binary_Alloy,,,Al_0.30Cr_0.70,"Al:30%, Cr:70%",3.343,,,
Systematic_Generation,,,Al40Cr60,,Fm-3m,,,,,,,,,ALLOY_001792,,,Binary_Alloy,,,Al_0.40Cr_0.60,"Al:40%, Cr:60%",3.801,,,
Systematic_Generation,,,Al50Cr50,,Im-3m,,,,,,,,,ALLOY_001793,,,Binary_Alloy,,,Al_0.50Cr_0.50,"Al:50%, Cr:50%",3.16,,,
Systematic_Generation,,,Al60Cr40,,Im-3m,,,,,,,,,ALLOY_001794,,,Binary_Alloy,,,Al_0.60Cr_0.40,"Al:60%, Cr:40%",3.353,,,
Systematic_Generation,,,Al70Cr30,,Fm-3m,,,,,,,,,ALLOY_001795,,,Binary_Alloy,,,Al_0.70Cr_0.30,"Al:70%, Cr:30%",2.804,,,
Systematic_Generation,,,Al80Cr20,,P63/mmc,,,,,,,,,ALLOY_001796,,,Binary_Alloy,,,Al_0.80Cr_0.20,"Al:80%, Cr:20%",3.109,,,
Systematic_Generation,,,Al90Cr10,,Pm-3m,,,,,,,,,ALLOY_001797,,,Binary_Alloy,,,Al_0.90Cr_0.10,"Al:90%, Cr:10%",3.534,,,
Systematic_Generation,,,Al10Co90,,P63/mmc,,,,,,,,,ALLOY_001798,,,Binary_Alloy,,,Al_0.10Co_0.90,"Al:10%, Co:90%",3.056,,,
Systematic_Generation,,,Al20Co80,,P63/mmc,,,,,,,,,ALLOY_001799,,,Binary_Alloy,,,Al_0.20Co_0.80,"Al:20%, Co:80%",3.376,,,
Systematic_Generation,,,Al30Co70,,Fm-3m,,,,,,,,,ALLOY_001800,,,Binary_Alloy,,,Al_0.30Co_0.70,"Al:30%, Co:70%",3.291,,,
Systematic_Generation,,,Al40Co60,,P63/mmc,,,,,,,,,ALLOY_001801,,,Binary_Alloy,,,Al_0.40Co_0.60,"Al:40%, Co:60%",3.778,,,
Systematic_Generation,,,Al50Co50,,Im-3m,,,,,,,,,ALLOY_001802,,,Binary_Alloy,,,Al_0.50Co_0.50,"Al:50%, Co:50%",4.473,,,
Systematic_Generation,,,Al60Co40,,P63/mmc,,,,,,,,,ALLOY_001803,,,Binary_Alloy,,,Al_0.60Co_0.40,"Al:60%, Co:40%",4.227,,,
Systematic_Generation,,,Al70Co30,,Fm-3m,,,,,,,,,ALLOY_001804,,,Binary_Alloy,,,Al_0.70Co_0.30,"Al:70%, Co:30%",2.915,,,
Systematic_Generation,,,Al80Co20,,Fm-3m,,,,,,,,,ALLOY_001805,,,Binary_Alloy,,,Al_0.80Co_0.20,"Al:80%, Co:20%",3.725,,,
Systematic_Generation,,,Al90Co10,,Im-3m,,,,,,,,,ALLOY_001806,,,Binary_Alloy,,,Al_0.90Co_0.10,"Al:90%, Co:10%",3.458,,,
Systematic_Generation,,,Al10Mn90,,P63/mmc,,,,,,,,,ALLOY_001807,,,Binary_Alloy,,,Al_0.10Mn_0.90,"Al:10%, Mn:90%",3.051,,,
Systematic_Generation,,,Al20Mn80,,Im-3m,,,,,,,,,ALLOY_001808,,,Binary_Alloy,,,Al_0.20Mn_0.80,"Al:20%, Mn:80%",4.196,,,
Systematic_Generation,,,Al30Mn70,,P63/mmc,,,,,,,,,ALLOY_001809,,,Binary_Alloy,,,Al_0.30Mn_0.70,"Al:30%, Mn:70%",3.934,,,
Systematic_Generation,,,Al40Mn60,,P63/mmc,,,,,,,,,ALLOY_001810,,,Binary_Alloy,,,Al_0.40Mn_0.60,"Al:40%, Mn:60%",3.541,,,
Systematic_Generation,,,Al50Mn50,,P63/mmc,,,,,,,,,ALLOY_001811,,,Binary_Alloy,,,Al_0.50Mn_0.50,"Al:50%, Mn:50%",2.729,,,
Systematic_Generation,,,Al60Mn40,,Pm-3m,,,,,,,,,ALLOY_001812,,,Binary_Alloy,,,Al_0.60Mn_0.40,"Al:60%, Mn:40%",2.853,,,
Systematic_Generation,,,Al70Mn30,,Fm-3m,,,,,,,,,ALLOY_001813,,,Binary_Alloy,,,Al_0.70Mn_0.30,"Al:70%, Mn:30%",4.487,,,
Systematic_Generation,,,Al80Mn20,,Pm-3m,,,,,,,,,ALLOY_001814,,,Binary_Alloy,,,Al_0.80Mn_0.20,"Al:80%, Mn:20%",4.298,,,
Systematic_Generation,,,Al90Mn10,,Im-3m,,,,,,,,,ALLOY_001815,,,Binary_Alloy,,,Al_0.90Mn_0.10,"Al:90%, Mn:10%",2.693,,,
Systematic_Generation,,,Al10Mg90,,P63/mmc,,,,,,,,,ALLOY_001816,,,Binary_Alloy,,,Al_0.10Mg_0.90,"Al:10%, Mg:90%",2.756,,,
Systematic_Generation,,,Al20Mg80,,P63/mmc,,,,,,,,,ALLOY_001817,,,Binary_Alloy,,,Al_0.20Mg_0.80,"Al:20%, Mg:80%",4.276,,,
Systematic_Generation,,,Al30Mg70,,Im-3m,,,,,,,,,ALLOY_001818,,,Binary_Alloy,,,Al_0.30Mg_0.70,"Al:30%, Mg:70%",3.79,,,
Systematic_Generation,,,Al40Mg60,,Pm-3m,,,,,,,,,ALLOY_001819,,,Binary_Alloy,,,Al_0.40Mg_0.60,"Al:40%, Mg:60%",2.522,,,
Systematic_Generation,,,Al50Mg50,,P63/mmc,,,,,,,,,ALLOY_001820,,,Binary_Alloy,,,Al_0.50Mg_0.50,"Al:50%, Mg:50%",2.929,,,
Systematic_Generation,,,Al60Mg40,,Im-3m,,,,,,,,,ALLOY_001821,,,Binary_Alloy,,,Al_0.60Mg_0.40,"Al:60%, Mg:40%",3.355,,,
Systematic_Generation,,,Al70Mg30,,P63/mmc,,,,,,,,,ALLOY_001822,,,Binary_Alloy,,,Al_0.70Mg_0.30,"Al:70%, Mg:30%",2.982,,,
Systematic_Generation,,,Al80Mg20,,P63/mmc,,,,,,,,,ALLOY_001823,,,Binary_Alloy,,,Al_0.80Mg_0.20,"Al:80%, Mg:20%",3.003,,,
Systematic_Generation,,,Al90Mg10,,P63/mmc,,,,,,,,,ALLOY_001824,,,Binary_Alloy,,,Al_0.90Mg_0.10,"Al:90%, Mg:10%",3.627,,,
Systematic_Generation,,,Al10Zn90,,P63/mmc,,,,,,,,,ALLOY_001825,,,Binary_Alloy,,,Al_0.10Zn_0.90,"Al:10%, Zn:90%",4.406,,,
Systematic_Generation,,,Al20Zn80,,Im-3m,,,,,,,,,ALLOY_001826,,,Binary_Alloy,,,Al_0.20Zn_0.80,"Al:20%, Zn:80%",3.938,,,
Systematic_Generation,,,Al30Zn70,,Fm-3m,,,,,,,,,ALLOY_001827,,,Binary_Alloy,,,Al_0.30Zn_0.70,"Al:30%, Zn:70%",2.731,,,
Systematic_Generation,,,Al40Zn60,,Fm-3m,,,,,,,,,ALLOY_001828,,,Binary_Alloy,,,Al_0.40Zn_0.60,"Al:40%, Zn:60%",4.052,,,
Systematic_Generation,,,Al50Zn50,,Pm-3m,,,,,,,,,ALLOY_001829,,,Binary_Alloy,,,Al_0.50Zn_0.50,"Al:50%, Zn:50%",3.317,,,
Systematic_Generation,,,Al60Zn40,,Im-3m,,,,,,,,,ALLOY_001830,,,Binary_Alloy,,,Al_0.60Zn_0.40,"Al:60%, Zn:40%",3.62,,,
Systematic_Generation,,,Al70Zn30,,Im-3m,,,,,,,,,ALLOY_001831,,,Binary_Alloy,,,Al_0.70Zn_0.30,"Al:70%, Zn:30%",4.445,,,
Systematic_Generation,,,Al80Zn20,,Fm-3m,,,,,,,,,ALLOY_001832,,,Binary_Alloy,,,Al_0.80Zn_0.20,"Al:80%, Zn:20%",4.321,,,
Systematic_Generation,,,Al90Zn10,,Im-3m,,,,,,,,,ALLOY_001833,,,Binary_Alloy,,,Al_0.90Zn_0.10,"Al:90%, Zn:10%",3.421,,,
Systematic_Generation,,,Al10Si90,,Pm-3m,,,,,,,,,ALLOY_001834,,,Binary_Alloy,,,Al_0.10Si_0.90,"Al:10%, Si:90%",4.352,,,
Systematic_Generation,,,Al20Si80,,P63/mmc,,,,,,,,,ALLOY_001835,,,Binary_Alloy,,,Al_0.20Si_0.80,"Al:20%, Si:80%",2.796,,,
Systematic_Generation,,,Al30Si70,,Pm-3m,,,,,,,,,ALLOY_001836,,,Binary_Alloy,,,Al_0.30Si_0.70,"Al:30%, Si:70%",3.783,,,
Systematic_Generation,,,Al40Si60,,Pm-3m,,,,,,,,,ALLOY_001837,,,Binary_Alloy,,,Al_0.40Si_0.60,"Al:40%, Si:60%",4.034,,,
Systematic_Generation,,,Al50Si50,,Im-3m,,,,,,,,,ALLOY_001838,,,Binary_Alloy,,,Al_0.50Si_0.50,"Al:50%, Si:50%",2.64,,,
Systematic_Generation,,,Al60Si40,,P63/mmc,,,,,,,,,ALLOY_001839,,,Binary_Alloy,,,Al_0.60Si_0.40,"Al:60%, Si:40%",4.205,,,
Systematic_Generation,,,Al70Si30,,P63/mmc,,,,,,,,,ALLOY_001840,,,Binary_Alloy,,,Al_0.70Si_0.30,"Al:70%, Si:30%",3.056,,,
Systematic_Generation,,,Al80Si20,,Fm-3m,,,,,,,,,ALLOY_001841,,,Binary_Alloy,,,Al_0.80Si_0.20,"Al:80%, Si:20%",3.822,,,
Systematic_Generation,,,Al90Si10,,Pm-3m,,,,,,,,,ALLOY_001842,,,Binary_Alloy,,,Al_0.90Si_0.10,"Al:90%, Si:10%",3.122,,,
Systematic_Generation,,,Al10Mo90,,P63/mmc,,,,,,,,,ALLOY_001843,,,Binary_Alloy,,,Al_0.10Mo_0.90,"Al:10%, Mo:90%",4.404,,,
Systematic_Generation,,,Al20Mo80,,P63/mmc,,,,,,,,,ALLOY_001844,,,Binary_Alloy,,,Al_0.20Mo_0.80,"Al:20%, Mo:80%",3.32,,,
Systematic_Generation,,,Al30Mo70,,Pm-3m,,,,,,,,,ALLOY_001845,,,Binary_Alloy,,,Al_0.30Mo_0.70,"Al:30%, Mo:70%",3.55,,,
Systematic_Generation,,,Al40Mo60,,P63/mmc,,,,,,,,,ALLOY_001846,,,Binary_Alloy,,,Al_0.40Mo_0.60,"Al:40%, Mo:60%",3.0,,,
Systematic_Generation,,,Al50Mo50,,P63/mmc,,,,,,,,,ALLOY_001847,,,Binary_Alloy,,,Al_0.50Mo_0.50,"Al:50%, Mo:50%",3.645,,,
Systematic_Generation,,,Al60Mo40,,Fm-3m,,,,,,,,,ALLOY_001848,,,Binary_Alloy,,,Al_0.60Mo_0.40,"Al:60%, Mo:40%",2.57,,,
Systematic_Generation,,,Al70Mo30,,Pm-3m,,,,,,,,,ALLOY_001849,,,Binary_Alloy,,,Al_0.70Mo_0.30,"Al:70%, Mo:30%",4.437,,,
Systematic_Generation,,,Al80Mo20,,P63/mmc,,,,,,,,,ALLOY_001850,,,Binary_Alloy,,,Al_0.80Mo_0.20,"Al:80%, Mo:20%",4.281,,,
Systematic_Generation,,,Al90Mo10,,Fm-3m,,,,,,,,,ALLOY_001851,,,Binary_Alloy,,,Al_0.90Mo_0.10,"Al:90%, Mo:10%",2.793,,,
Systematic_Generation,,,Al10W90,,Im-3m,,,,,,,,,ALLOY_001852,,,Binary_Alloy,,,Al_0.10W_0.90,"Al:10%, W:90%",3.403,,,
Systematic_Generation,,,Al20W80,,Pm-3m,,,,,,,,,ALLOY_001853,,,Binary_Alloy,,,Al_0.20W_0.80,"Al:20%, W:80%",2.609,,,
Systematic_Generation,,,Al30W70,,Im-3m,,,,,,,,,ALLOY_001854,,,Binary_Alloy,,,Al_0.30W_0.70,"Al:30%, W:70%",3.317,,,