source,n_elements,doping_concentration,name,termination,space_group,doping_level,volume_fraction,weight_percent,lattice_c,temperature,reinforcement,matrix,layers,material_id,molecular_weight,deposition_method,type,lattice_b,pdi,formula,composition,lattice_a,thickness_nm,dopant,substrate
Systematic_Generation,,,Fe70Cr30,,Fm-3m,,,,,,,,,ALLOY_002020,,,Binary_Alloy,,,Fe_0.70Cr_0.30,"Fe:70%, Cr:30%",3.561,,,
Systematic_Generation,,,Fe80Cr20,,P63/mmc,,,,,,,,,ALLOY_002021,,,Binary_Alloy,,,Fe_0.80Cr_0.20,"Fe:80%, Cr:20%",2.645,,,
Systematic_Generation,,,Fe90Cr10,,Pm-3m,,,,,,,,,ALLOY_002022,,,Binary_Alloy,,,Fe_0.90Cr_0.10,"Fe:90%, Cr:10%",2.634,,,
Systematic_Generation,,,Fe10Co90,,Pm-3m,,,,,,,,,ALLOY_002023,,,Binary_Alloy,,,Fe_0.10Co_0.90,"Fe:10%, Co:90%",3.734,,,
Systematic_Generation,,,Fe20Co80,,P63/mmc,,,,,,,,,ALLOY_002024,,,Binary_Alloy,,,Fe_0.20Co_0.80,"Fe:20%, Co:80%",2.636,,,
Systematic_Generation,,,Fe30Co70,,Fm-3m,,,,,,,,,ALLOY_002025,,,Binary_Alloy,,,Fe_0.30Co_0.70,"Fe:30%, Co:70%",3.146,,,
Systematic_Generation,,,Fe40Co60,,P63/mmc,,,,,,,,,ALLOY_002026,,,Binary_Alloy,,,Fe_0.40Co_0.60,"Fe:40%, Co:60%",3.429,,,
Systematic_Generation,,,Fe50Co50,,P63/mmc,,,,,,,,,ALLOY_002027,,,Binary_Alloy,,,Fe_0.50Co_0.50,"Fe:50%, Co:50%",4.111,,,
Systematic_Generation,,,Fe60Co40,,Im-3m,,,,,,,,,ALLOY_002028,,,Binary_Alloy,,,Fe_0.60Co_0.40,"Fe:60%, Co:40%",3.345,,,
Systematic_Generation,,,Fe70Co30,,Pm-3m,,,,,,,,,ALLOY_002029,,,Binary_Alloy,,,Fe_0.70Co_0.30,"Fe:70%, Co:30%",2.697,,,
Systematic_Generation,,,Fe80Co20,,Pm-3m,,,,,,,,,ALLOY_002030,,,Binary_Alloy,,,Fe_0.80Co_0.20,"Fe:80%, Co:20%",3.991,,,
Systematic_Generation,,,Fe90Co10,,Pm-3m,,,,,,,,,ALLOY_002031,,,Binary_Alloy,,,Fe_0.90Co_0.10,"Fe:90%, Co:10%",4.453,,,
Systematic_Generation,,,Fe10Mn90,,P63/mmc,,,,,,,,,ALLOY_002032,,,Binary_Alloy,,,Fe_0.10Mn_0.90,"Fe:10%, Mn:90%",4.404,,,
Systematic_Generation,,,Fe20Mn80,,Fm-3m,,,,,,,,,ALLOY_002033,,,Binary_Alloy,,,Fe_0.20Mn_0.80,"Fe:20%, Mn:80%",4.294,,,
Systematic_Generation,,,Fe30Mn70,,Pm-3m,,,,,,,,,ALLOY_002034,,,Binary_Alloy,,,Fe_0.30Mn_0.70,"Fe:30%, Mn:70%",3.904,,,
Systematic_Generation,,,Fe40Mn60,,P63/mmc,,,,,,,,,ALLOY_002035,,,Binary_Alloy,,,Fe_0.40Mn_0.60,"Fe:40%, Mn:60%",4.224,,,
Systematic_Generation,,,Fe50Mn50,,Im-3m,,,,,,,,,ALLOY_002036,,,Binary_Alloy,,,Fe_0.50Mn_0.50,"Fe:50%, Mn:50%",2.64,,,
Systematic_Generation,,,Fe60Mn40,,Fm-3m,,,,,,,,,ALLOY_002037,,,Binary_Alloy,,,Fe_0.60Mn_0.40,"Fe:60%, Mn:40%",2.559,,,
Systematic_Generation,,,Fe70Mn30,,P63/mmc,,,,,,,,,ALLOY_002038,,,Binary_Alloy,,,Fe_0.70Mn_0.30,"Fe:70%, Mn:30%",2.723,,,
Systematic_Generation,,,Fe80Mn20,,Im-3m,,,,,,,,,ALLOY_002039,,,Binary_Alloy,,,Fe_0.80Mn_0.20,"Fe:80%, Mn:20%",3.56,,,
Systematic_Generation,,,Fe90Mn10,,Im-3m,,,,,,,,,ALLOY_002040,,,Binary_Alloy,,,Fe_0.90Mn_0.10,"Fe:90%, Mn:10%",3.469,,,
Systematic_Generation,,,Fe10Mg90,,Im-3m,,,,,,,,,ALLOY_002041,,,Binary_Alloy,,,Fe_0.10Mg_0.90,"Fe:10%, Mg:90%",3.457,,,
Systematic_Generation,,,Fe20Mg80,,P63/mmc,,,,,,,,,ALLOY_002042,,,Binary_Alloy,,,Fe_0.20Mg_0.80,"Fe:20%, Mg:80%",4.443,,,
Systematic_Generation,,,Fe30Mg70,,Fm-3m,,,,,,,,,ALLOY_002043,,,Binary_Alloy,,,Fe_0.30Mg_0.70,"Fe:30%, Mg:70%",3.511,,,
Systematic_Generation,,,Fe40Mg60,,Fm-3m,,,,,,,,,ALLOY_002044,,,Binary_Alloy,,,Fe_0.40Mg_0.60,"Fe:40%, Mg:60%",4.364,,,
Systematic_Generation,,,Fe50Mg50,,Im-3m,,,,,,,,,ALLOY_002045,,,Binary_Alloy,,,Fe_0.50Mg_0.50,"Fe:50%, Mg:50%",4.134,,,
Systematic_Generation,,,Fe60Mg40,,Fm-3m,,,,,,,,,ALLOY_002046,,,Binary_Alloy,,,Fe_0.60Mg_0.40,"Fe:60%, Mg:40%",3.393,,,
Systematic_Generation,,,Fe70Mg30,,Fm-3m,,,,,,,,,ALLOY_002047,,,Binary_Alloy,,,Fe_0.70Mg_0.30,"Fe:70%, Mg:30%",4.293,,,
Systematic_Generation,,,Fe80Mg20,,P63/mmc,,,,,,,,,ALLOY_002048,,,Binary_Alloy,,,Fe_0.80Mg_0.20,"Fe:80%, Mg:20%",3.719,,,
Systematic_Generation,,,Fe90Mg10,,Im-3m,,,,,,,,,ALLOY_002049,,,Binary_Alloy,,,Fe_0.90Mg_0.10,"Fe:90%, Mg:10%",3.619,,,
Systematic_Generation,,,Fe10Zn90,,Im-3m,,,,,,,,,ALLOY_002050,,,Binary_Alloy,,,Fe_0.10Zn_0.90,"Fe:10%, Zn:90%",2.791,,,
Systematic_Generation,,,Fe20Zn80,,Fm-3m,,,,,,,,,ALLOY_002051,,,Binary_Alloy,,,Fe_0.20Zn_0.80,"Fe:20%, Zn:80%",4.469,,,
Systematic_Generation,,,Fe30Zn70,,P63/mmc,,,,,,,,,ALLOY_002052,,,Binary_Alloy,,,Fe_0.30Zn_0.70,"Fe:30%, Zn:70%",4.409,,,
Systematic_Generation,,,Fe40Zn60,,Im-3m,,,,,,,,,ALLOY_002053,,,Binary_Alloy,,,Fe_0.40Zn_0.60,"Fe:40%, Zn:60%",3.795,,,
Systematic_Generation,,,Fe50Zn50,,Pm-3m,,,,,,,,,ALLOY_002054,,,Binary_Alloy,,,Fe_0.50Zn_0.50,"Fe:50%, Zn:50%",3.254,,,
Systematic_Generation,,,Fe60Zn40,,Pm-3m,,,,,,,,,ALLOY_002055,,,Binary_Alloy,,,Fe_0.60Zn_0.40,"Fe:60%, Zn:40%",2.909,,,
Systematic_Generation,,,Fe70Zn30,,P63/mmc,,,,,,,,,ALLOY_002056,,,Binary_Alloy,,,Fe_0.70Zn_0.30,"Fe:70%, Zn:30%",4.468,,,
Systematic_Generation,,,Fe80Zn20,,Im-3m,,,,,,,,,ALLOY_002057,,,Binary_Alloy,,,Fe_0.80Zn_0.20,"Fe:80%, Zn:20%",2.968,,,
Systematic_Generation,,,Fe90Zn10,,Pm-3m,,,,,,,,,ALLOY_002058,,,Binary_Alloy,,,Fe_0.90Zn_0.10,"Fe:90%, Zn:10%",2.523,,,
Systematic_Generation,,,Fe10Si90,,Im-3m,,,,,,,,,ALLOY_002059,,,Binary_Alloy,,,Fe_0.10Si_0.90,"Fe:10%, Si:90%",3.578,,,
Systematic_Generation,,,Fe20Si80,,Im-3m,,,,,,,,,ALLOY_002060,,,Binary_Alloy,,,Fe_0.20Si_0.80,"Fe:20%, Si:80%",4.304,,,
Systematic_Generation,,,Fe30Si70,,Im-3m,,,,,,,,,ALLOY_002061,,,Binary_Alloy,,,Fe_0.30Si_0.70,"Fe:30%, Si:70%",3.958,,,
Systematic_Generation,,,Fe40Si60,,P63/mmc,,,,,,,,,ALLOY_002062,,,Binary_Alloy,,,Fe_0.40Si_0.60,"Fe:40%, Si:60%",3.719,,,
Systematic_Generation,,,Fe50Si50,,Pm-3m,,,,,,,,,ALLOY_002063,,,Binary_Alloy,,,Fe_0.50Si_0.50,"Fe:50%, Si:50%",3.725,,,
Systematic_Generation,,,Fe60Si40,,P63/mmc,,,,,,,,,ALLOY_002064,,,Binary_Alloy,,,Fe_0.60Si_0.40,"Fe:60%, Si:40%",4.323,,,
Systematic_Generation,,,Fe70Si30,,Fm-3m,,,,,,,,,ALLOY_002065,,,Binary_Alloy,,,Fe_0.70Si_0.30,"Fe:70%, Si:30%",4.106,,,
Systematic_Generation,,,Fe80Si20,,Fm-3m,,,,,,,,,ALLOY_002066,,,Binary_Alloy,,,Fe_0.80Si_0.20,"Fe:80%, Si:20%",2.924,,,
Systematic_Generation,,,Fe90Si10,,Pm-3m,,,,,,,,,ALLOY_002067,,,Binary_Alloy,,,Fe_0.90Si_0.10,"Fe:90%, Si:10%",2.507,,,
Systematic_Generation,,,Fe10Mo90,,Pm-3m,,,,,,,,,ALLOY_002068,,,Binary_Alloy,,,Fe_0.10Mo_0.90,"Fe:10%, Mo:90%",3.257,,,
Systematic_Generation,,,Fe20Mo80,,Fm-3m,,,,,,,,,ALLOY_002069,,,Binary_Alloy,,,Fe_0.20Mo_0.80,"Fe:20%, Mo:80%",3.994,,,
Systematic_Generation,,,Fe30Mo70,,Im-3m,,,,,,,,,ALLOY_002070,,,Binary_Alloy,,,Fe_0.30Mo_0.70,"Fe:30%, Mo:70%",3.636,,,
Systematic_Generation,,,Fe40Mo60,,Fm-3m,,,,,,,,,ALLOY_002071,,,Binary_Alloy,,,Fe_0.40Mo_0.60,"Fe:40%, Mo:60%",2.636,,,
Systematic_Generation,,,Fe50Mo50,,Im-3m,,,,,,,,,ALLOY_002072,,,Binary_Alloy,,,Fe_0.50Mo_0.50,"Fe:50%, Mo:50%",2.672,,,
Systematic_Generation,,,Fe60Mo40,,Im-3m,,,,,,,,,ALLOY_002073,,,Binary_Alloy,,,Fe_0.60Mo_0.40,"Fe:60%, Mo:40%",4.409,,,
Systematic_Generation,,,Fe70Mo30,,Pm-3m,,,,,,,,,ALLOY_002074,,,Binary_Alloy,,,Fe_0.70Mo_0.30,"Fe:70%, Mo:30%",3.528,,,
Systematic_Generation,,,Fe80Mo20,,Fm-3m,,,,,,,,,ALLOY_002075,,,Binary_Alloy,,,Fe_0.80Mo_0.20,"Fe:80%, Mo:20%",3.954,,,
Systematic_Generation,,,Fe90Mo10,,P63/mmc,,,,,,,,,ALLOY_002076,,,Binary_Alloy,,,Fe_0.90Mo_0.10,"Fe:90%, Mo:10%",3.596,,,
Systematic_Generation,,,Fe10W90,,Pm-3m,,,,,,,,,ALLOY_002077,,,Binary_Alloy,,,Fe_0.10W_0.90,"Fe:10%, W:90%",2.88,,,
Systematic_Generation,,,Fe20W80,,P63/mmc,,,,,,,,,ALLOY_002078,,,Binary_Alloy,,,Fe_0.20W_0.80,"Fe:20%, W:80%",3.447,,,
Systematic_Generation,,,Fe30W70,,P63/mmc,,,,,,,,,ALLOY_002079,,,Binary_Alloy,,,Fe_0.30W_0.70,"Fe:30%, W:70%",2.807,,,
Systematic_Generation,,,Fe40W60,,Im-3m,,,,,,,,,ALLOY_002080,,,Binary_Alloy,,,Fe_0.40W_0.60,"Fe:40%, W:60%",3.04,,,
Systematic_Generation,,,Fe50W50,,Pm-3m,,,,,,,,,ALLOY_002081,,,Binary_Alloy,,,Fe_0.50W_0.50,"Fe:50%, W:50%",2.522,,,
Systematic_Generation,,,Fe60W40,,Pm-3m,,,,,,,,,ALLOY_002082,,,Binary_Alloy,,,Fe_0.60W_0.40,"Fe:60%, W:40%",3.125,,,
Systematic_Generation,,,Fe70W30,,Fm-3m,,,,,,,,,ALLOY_002083,,,Binary_Alloy,,,Fe_0.70W_0.30,"Fe:70%, W:30%",3.559,,,
Systematic_Generation,,,Fe80W20,,Im-3m,,,,,,,,,ALLOY_002084,,,Binary_Alloy,,,Fe_0.80W_0.20,"Fe:80%, W:20%",2.597,,,
Systematic_Generation,,,Fe90W10,,Fm-3m,,,,,,,,,ALLOY_002085,,,Binary_Alloy,,,Fe_0.90W_0.10,"Fe:90%, W:10%",3.54,,,
Systematic_Generation,,,Fe10V90,,Pm-3m,,,,,,,,,ALLOY_002086,,,Binary_Alloy,,,Fe_0.10V_0.90,"Fe:10%, V:90%",3.653,,,
Systematic_Generation,,,Fe20V80,,P63/mmc,,,,,,,,,ALLOY_002087,,,Binary_Alloy,,,Fe_0.20V_0.80,"Fe:20%, V:80%",3.548,,,
Systematic_Generation,,,Fe30V70,,Pm-3m,,,,,,,,,ALLOY_002088,,,Binary_Alloy,,,Fe_0.30V_0.70,"Fe:30%, V:70%",3.4,,,
Systematic_Generation,,,Fe40V60,,Im-3m,,,,,,,,,ALLOY_002089,,,Binary_Alloy,,,Fe_0.40V_0.60,"Fe:40%, V:60%",4.024,,,
Systematic_Generation,,,Fe50V50,,Im-3m,,,,,,,,,ALLOY_002090,,,Binary_Alloy,,,Fe_0.50V_0.50,"Fe:50%, V:50%",2.93,,,
Systematic_Generation,,,Fe60V40,,Fm-3m,,,,,,,,,ALLOY_002091,,,Binary_Alloy,,,Fe_0.60V_0.40,"Fe:60%, V:40%",3.256,,,
Systematic_Generation,,,Fe70V30,,P63/mmc,,,,,,,,,ALLOY_002092,,,Binary_Alloy,,,Fe_0.70V_0.30,"Fe:70%, V:30%",3.248,,,
Systematic_Generation,,,Fe80V20,,P63/mmc,,,,,,,,,ALLOY_002093,,,Binary_Alloy,,,Fe_0.80V_0.20,"Fe:80%, V:20%",3.878,,,
Systematic_Generation,,,Fe90V10,,Im-3m,,,,,,,,,ALLOY_002094,,,Binary_Alloy,,,Fe_0.90V_0.10,"Fe:90%, V:10%",3.541,,,
Systematic_Generation,,,Fe10Nb90,,Pm-3m,,,,,,,,,ALLOY_002095,,,Binary_Alloy,,,Fe_0.10Nb_0.90,"Fe:10%, Nb:90%",4.406,,,
Systematic_Generation,,,Fe20Nb80,,Fm-3m,,,,,,,,,ALLOY_002096,,,Binary_Alloy,,,Fe_0.20Nb_0.80,"Fe:20%, Nb:80%",2.929,,,
Systematic_Generation,,,Fe30Nb70,,Im-3m,,,,,,,,,ALLOY_002097,,,Binary_Alloy,,,Fe_0.30Nb_0.70,"Fe:30%, Nb:70%",2.817,,,
Systematic_Generation,,,Fe40Nb60,,Pm-3m,,,,,,,,,ALLOY_002098,,,Binary_Alloy,,,Fe_0.40Nb_0.60,"Fe:40%, Nb:60%",2.688,,,
Systematic_Generation,,,Fe50Nb50,,Pm-3m,,,,,,,,,ALLOY_002099,,,Binary_Alloy,,,Fe_0.50Nb_0.50,"Fe:50%, Nb:50%",2.602,,,
Systematic_Generation,,,Fe60Nb40,,P63/mmc,,,,,,,,,ALLOY_002100,,,Binary_Alloy,,,Fe_0.60Nb_0.40,"Fe:60%, Nb:40%",3.849,,,
Systematic_Generation,,,Fe70Nb30,,Fm-3m,,,,,,,,,ALLOY_002101,,,Binary_Alloy,,,Fe_0.70Nb_0.30,"Fe:70%, Nb:30%",3.771,,,
Systematic_Generation,,,Fe80Nb20,,P63/mmc,,,,,,,,,ALLOY_002102,,,Binary_Alloy,,,Fe_0.80Nb_0.20,"Fe:80%, Nb:20%",2.625,,,
Systematic_Generation,,,Fe90Nb10,,Fm-3m,,,,,,,,,ALLOY_002103,,,Binary_Alloy,,,Fe_0.90Nb_0.10,"Fe:90%, Nb:10%",4.431,,,
Systematic_Generation,,,Ni10Ti90,,P63/mmc,,,,,,,,,ALLOY_002104,,,Binary_Alloy,,,Ni_0.10Ti_0.90,"Ni:10%, Ti:90%",2.92,,,
Systematic_Generation,,,Ni20Ti80,,Fm-3m,,,,,,,,,ALLOY_002105,,,Binary_Alloy,,,Ni_0.20Ti_0.80,"Ni:20%, Ti:80%",2.966,,,
Systematic_Generation,,,Ni30Ti70,,Fm-3m,,,,,,,,,ALLOY_002106,,,Binary_Alloy,,,Ni_0.30Ti_0.70,"Ni:30%, Ti:70%",4.28,,,
Systematic_Generation,,,Ni40Ti60,,P63/mmc,,,,,,,,,ALLOY_002107,,,Binary_Alloy,,,Ni_0.40Ti_0.60,"Ni:40%, Ti:60%",3.487,,,
Systematic_Generation,,,Ni50Ti50,,P63/mmc,,,,,,,,,ALLOY_002108,,,Binary_Alloy,,,Ni_0.50Ti_0.50,"Ni:50%, Ti:50%",3.599,,,
Systematic_Generation,,,Ni60Ti40,,Fm-3m,,,,,,,,,ALLOY_002109,,,Binary_Alloy,,,Ni_0.60Ti_0.40,"Ni:60%, Ti:40%",3.327,,,
Systematic_Generation,,,Ni70Ti30,,P63/mmc,,,,,,,,,ALLOY_002110,,,Binary_Alloy,,,Ni_0.70Ti_0.30,"Ni:70%, Ti:30%",2.767,,,
Systematic_Generation,,,Ni80Ti20,,Im-3m,,,,,,,,,ALLOY_002111,,,Binary_Alloy,,,Ni_0.80Ti_0.20,"Ni:80%, Ti:20%",3.027,,,
Systematic_Generation,,,Ni90Ti10,,P63/mmc,,,,,,,,,ALLOY_002112,,,Binary_Alloy,,,Ni_0.90Ti_0.10,"Ni:90%, Ti:10%",3.746,,,
Systematic_Generation,,,Ni10Cr90,,Fm-3m,,,,,,,,,ALLOY_002113,,,Binary_Alloy,,,Ni_0.10Cr_0.90,"Ni:10%, Cr:90%",3.685,,,
Systematic_Generation,,,Ni20Cr80,,Fm-3m,,,,,,,,,ALLOY_002114,,,Binary_Alloy,,,Ni_0.20Cr_0.80,"Ni:20%, Cr:80%",3.31,,,
Systematic_Generation,,,Ni30Cr70,,P63/mmc,,,,,,,,,ALLOY_002115,,,Binary_Alloy,,,Ni_0.30Cr_0.70,"Ni:30%, Cr:70%",3.915,,,
Systematic_Generation,,,Ni40Cr60,,P63/mmc,,,,,,,,,ALLOY_002116,,,Binary_Alloy,,,Ni_0.40Cr_0.60,"Ni:40%, Cr:60%",3.284,,,
Systematic_Generation,,,Ni50Cr50,,P63/mmc,,,,,,,,,ALLOY_002117,,,Binary_Alloy,,,Ni_0.50Cr_0.50,"Ni:50%, Cr:50%",4.485,,,
Systematic_Generation,,,Ni60Cr40,,Fm-3m,,,,,,,,,ALLOY_002118,,,Binary_Alloy,,,Ni_0.60Cr_0.40,"Ni:60%, Cr:40%",4.377,,,
Systematic_Generation,,,Ni70Cr30,,Im-3m,,,,,,,,,ALLOY_002119,,,Binary_Alloy,,,Ni_0.70Cr_0.30,"Ni:70%, Cr:30%",3.445,,,
Systematic_Generation,,,Ni80Cr20,,Im-3m,,,,,,,,,ALLOY_002120,,,Binary_Alloy,,,Ni_0.80Cr_0.20,"Ni:80%, Cr:20%",2.503,,,
Systematic_Generation,,,Ni90Cr10,,Pm-3m,,,,,,,,,ALLOY_002121,,,Binary_Alloy,,,Ni_0.90Cr_0.10,"Ni:90%, Cr:10%",3.426,,,
Systematic_Generation,,,Ni10Co90,,Fm-3m,,,,,,,,,ALLOY_002122,,,Binary_Alloy,,,Ni_0.10Co_0.90,"Ni:10%, Co:90%",3.819,,,
Systematic_Generation,,,Ni20Co80,,P63/mmc,,,,,,,,,ALLOY_002123,,,Binary_Alloy,,,Ni_0.20Co_0.80,"Ni:20%, Co:80%",3.087,,,
Systematic_Generation,,,Ni30Co70,,P63/mmc,,,,,,,,,ALLOY_002124,,,Binary_Alloy,,,Ni_0.30Co_0.70,"Ni:30%, Co:70%",3.889,,,
Systematic_Generation,,,Ni40Co60,,Fm-3m,,,,,,,,,ALLOY_002125,,,Binary_Alloy,,,Ni_0.40Co_0.60,"Ni:40%, Co:60%",2.571,,,
Systematic_Generation,,,Ni50Co50,,P63/mmc,,,,,,,,,ALLOY_002126,,,Binary_Alloy,,,Ni_0.50Co_0.50,"Ni:50%, Co:50%",4.372,,,
Systematic_Generation,,,Ni60Co40,,Fm-3m,,,,,,,,,ALLOY_002127,,,Binary_Alloy,,,Ni_0.60Co_0.40,"Ni:60%, Co:40%",2.731,,,
Systematic_Generation,,,Ni70Co30,,Pm-3m,,,,,,,,,ALLOY_002128,,,Binary_Alloy,,,Ni_0.70Co_0.30,"Ni:70%, Co:30%",4.42,,,
Systematic_Generation,,,Ni80Co20,,Im-3m,,,,,,,,,ALLOY_002129,,,Binary_Alloy,,,Ni_0.80Co_0.20,"Ni:80%, Co:20%",3.104,,,
Systematic_Generation,,,Ni90Co10,,Im-3m,,,,,,,,,ALLOY_002130,,,Binary_Alloy,,,Ni_0.90Co_0.10,"Ni:90%, Co:10%",3.734,,,
Systematic_Generation,,,Ni10Mn90,,Fm-3m,,,,,,,,,ALLOY_002131,,,Binary_Alloy,,,Ni_0.10Mn_0.90,"Ni:10%, Mn:90%",2.98,,,
Systematic_Generation,,,Ni20Mn80,,Fm-3m,,,,,,,,,ALLOY_002132,,,Binary_Alloy,,,Ni_0.20Mn_0.80,"Ni:20%, Mn:80%",3.1,,,
Systematic_Generation,,,Ni30Mn70,,Fm-3m,,,,,,,,,ALLOY_002133,,,Binary_Alloy,,,Ni_0.30Mn_0.70,"Ni:30%, Mn:70%",4.012,,,
Systematic_Generation,,,Ni40Mn60,,P63/mmc,,,,,,,,,ALLOY_002134,,,Binary_Alloy,,,Ni_0.40Mn_0.60,"Ni:40%, Mn:60%",3.865,,,
Systematic_Generation,,,Ni50Mn50,,Fm-3m,,,,,,,,,ALLOY_002135,,,Binary_Alloy,,,Ni_0.50Mn_0.50,"Ni:50%, Mn:50%",4.021,,,
Systematic_Generation,,,Ni60Mn40,,P63/mmc,,,,,,,,,ALLOY_002136,,,Binary_Alloy,,,Ni_0.60Mn_0.40,"Ni:60%, Mn:40%",4.004,,,
Systematic_Generation,,,Ni70Mn30,,P63/mmc,,,,,,,,,ALLOY_002137,,,Binary_Alloy,,,Ni_0.70Mn_0.30,"Ni:70%, Mn:30%",3.424,,,
Systematic_Generation,,,Ni80Mn20,,Im-3m,,,,,,,,,ALLOY_002138,,,Binary_Alloy,,,Ni_0.80Mn_0.20,"Ni:80%, Mn:20%",4.045,,,
Systematic_Generation,,,Ni90Mn10,,Im-3m,,,,,,,,,ALLOY_002139,,,Binary_Alloy,,,Ni_0.90Mn_0.10,"Ni:90%, Mn:10%",4.136,,,
Systematic_Generation,,,Ni10Mg90,,P63/mmc,,,,,,,,,ALLOY_002140,,,Binary_Alloy,,,Ni_0.10Mg_0.90,"Ni:10%, Mg:90%",2.814,,,
Systematic_Generation,,,Ni20Mg80,,Fm-3m,,,,,,,,,ALLOY_002141,,,Binary_Alloy,,,Ni_0.20Mg_0.80,"Ni:20%, Mg:80%",3.5,,,
Systematic_Generation,,,Ni30Mg70,,Pm-3m,,,,,,,,,ALLOY_002142,,,Binary_Alloy,,,Ni_0.30Mg_0.70,"Ni:30%, Mg:70%",4.197,,,
Systematic_Generation,,,Ni40Mg60,,Pm-3m,,,,,,,,,ALLOY_002143,,,Binary_Alloy,,,Ni_0.40Mg_0.60,"Ni:40%, Mg:60%",2.748,,,
Systematic_Generation,,,Ni50Mg50,,Im-3m,,,,,,,,,ALLOY_002144,,,Binary_Alloy,,,Ni_0.50Mg_0.50,"Ni:50%, Mg:50%",3.65,,,
Systematic_Generation,,,Ni60Mg40,,P63/mmc,,,,,,,,,ALLOY_002145,,,Binary_Alloy,,,Ni_0.60Mg_0.40,"Ni:60%, Mg:40%",3.586,,,
Systematic_Generation,,,Ni70Mg30,,P63/mmc,,,,,,,,,ALLOY_002146,,,Binary_Alloy,,,Ni_0.70Mg_0.30,"Ni:70%, Mg:30%",2.82,,,
Systematic_Generation,,,Ni80Mg20,,Fm-3m,,,,,,,,,ALLOY_002147,,,Binary_Alloy,,,Ni_0.80Mg_0.20,"Ni:80%, Mg:20%",2.985,,,
Systematic_Generation,,,Ni90Mg10,,P63/mmc,,,,,,,,,ALLOY_002148,,,Binary_Alloy,,,Ni_0.90Mg_0.10,"Ni:90%, Mg:10%",4.191,,,
Systematic_Generation,,,Ni10Zn90,,Fm-3m,,,,,,,,,ALLOY_002149,,,Binary_Alloy,,,Ni_0.10Zn_0.90,"Ni:10%, Zn:90%",3.54,,,
Systematic_Generation,,,Ni20Zn80,,Im-3m,,,,,,,,,ALLOY_002150,,,Binary_Alloy,,,Ni_0.20Zn_0.80,"Ni:20%, Zn:80%",2.774,,,
Systematic_Generation,,,Ni30Zn70,,Im-3m,,,,,,,,,ALLOY_002151,,,Binary_Alloy,,,Ni_0.30Zn_0.70,"Ni:30%, Zn:70%",2.917,,,
Systematic_Generation,,,Ni40Zn60,,Im-3m,,,,,,,,,ALLOY_002152,,,Binary_Alloy,,,Ni_0.40Zn_0.60,"Ni:40%, Zn:60%",2.775,,,
Systematic_Generation,,,Ni50Zn50,,Fm-3m,,,,,,,,,ALLOY_002153,,,Binary_Alloy,,,Ni_0.50Zn_0.50,"Ni:50%, Zn:50%",3.747,,,
Systematic_Generation,,,Ni60Zn40,,Pm-3m,,,,,,,,,ALLOY_002154,,,Binary_Alloy,,,Ni_0.60Zn_0.40,"Ni:60%, Zn:40%",2.91,,,
Systematic_Generation,,,Ni70Zn30,,Im-3m,,,,,,,,,ALLOY_002155,,,Binary_Alloy,,,Ni_0.70Zn_0.30,"Ni:70%, Zn:30%",4.044,,,
Systematic_Generation,,,Ni80Zn20,,Fm-3m,,,,,,,,,ALLOY_002156,,,Binary_Alloy,,,Ni_0.80Zn_0.20,"Ni:80%, Zn:20%",4.316,,,
Systematic_Generation,,,Ni90Zn10,,P63/mmc,,,,,,,,,ALLOY_002157,,,Binary_Alloy,,,Ni_0.90Zn_0.10,"Ni:90%, Zn:10%",4.244,,,
Systematic_Generation,,,Ni10Si90,,Im-3m,,,,,,,,,ALLOY_002158,,,Binary_Alloy,,,Ni_0.10Si_0.90,"Ni:10%, Si:90%",2.834,,,
Systematic_Generation,,,Ni20Si80,,Pm-3m,,,,,,,,,ALLOY_002159,,,Binary_Alloy,,,Ni_0.20Si_0.80,"Ni:20%, Si:80%",3.083,,,
Systematic_Generation,,,Ni30Si70,,P63/mmc,,,,,,,,,ALLOY_002160,,,Binary_Alloy,,,Ni_0.30Si_0.70,"Ni:30%, Si:70%",4.038,,,
Systematic_Generation,,,Ni40Si60,,P63/mmc,,,,,,,,,ALLOY_002161,,,Binary_Alloy,,,Ni_0.40Si_0.60,"Ni:40%, Si:60%",4.287,,,
Systematic_Generation,,,Ni50Si50,,Fm-3m,,,,,,,,,ALLOY_002162,,,Binary_Alloy,,,Ni_0.50Si_0.50,"Ni:50%, Si:50%",4.332,,,
Systematic_Generation,,,Ni60Si40,,Im-3m,,,,,,,,,ALLOY_002163,,,Binary_Alloy,,,Ni_0.60Si_0.40,"Ni:60%, Si:40%",3.745,,,
Systematic_Generation,,,Ni70Si30,,Im-3m,,,,,,,,,ALLOY_002164,,,Binary_Alloy,,,Ni_0.70Si_0.30,"Ni:70%, Si:30%",2.783,,,
Systematic_Generation,,,Ni80Si20,,Pm-3m,,,,,,,,,ALLOY_002165,,,Binary_Alloy,,,Ni_0.80Si_0.20,"Ni:80%, Si:20%",3.635,,,
Systematic_Generation,,,Ni90Si10,,P63/mmc,,,,,,,,,ALLOY_002166,,,Binary_Alloy,,,Ni_0.90Si_0.10,"Ni:90%, Si:10%",2.512,,,
Systematic_Generation,,,Ni10Mo90,,Fm-3m,,,,,,,,,ALLOY_002167,,,Binary_Alloy,,,Ni_0.10Mo_0.90,"Ni:10%, Mo:90%",3.117,,,
Systematic_Generation,,,Ni20Mo80,,Im-3m,,,,,,,,,ALLOY_002168,,,Binary_Alloy,,,Ni_0.20Mo_0.80,"Ni:20%, Mo:80%",3.471,,,
Systematic_Generation,,,Ni30Mo70,,Pm-3m,,,,,,,,,ALLOY_002169,,,Binary_Alloy,,,Ni_0.30Mo_0.70,"Ni:30%, Mo:70%",2.797,,,
Systematic_Generation,,,Ni40Mo60,,Pm-3m,,,,,,,,,ALLOY_002170,,,Binary_Alloy,,,Ni_0.40Mo_0.60,"Ni:40%, Mo:60%",2.922,,,
Systematic_Generation,,,Ni50Mo50,,Fm-3m,,,,,,,,,ALLOY_002171,,,Binary_Alloy,,,Ni_0.50Mo_0.50,"Ni:50%, Mo:50%",3.674,,,
Systematic_Generation,,,Ni60Mo40,,Fm-3m,,,,,,,,,ALLOY_002172,,,Binary_Alloy,,,Ni_0.60Mo_0.40,"Ni:60%, Mo:40%",3.006,,,
Systematic_Generation,,,Ni70Mo30,,Im-3m,,,,,,,,,ALLOY_002173,,,Binary_Alloy,,,Ni_0.70Mo_0.30,"Ni:70%, Mo:30%",3.688,,,
Systematic_Generation,,,Ni80Mo20,,Im-3m,,,,,,,,,ALLOY_002174,,,Binary_Alloy,,,Ni_0.80Mo_0.20,"Ni:80%, Mo:20%",4.029,,,
Systematic_Generation,,,Ni90Mo10,,P63/mmc,,,,,,,,,ALLOY_002175,,,Binary_Alloy,,,Ni_0.90Mo_0.10,"Ni:90%, Mo:10%",3.368,,,
Systematic_Generation,,,Ni10W90,,Im-3m,,,,,,,,,ALLOY_002176,,,Binary_Alloy,,,Ni_0.10W_0.90,"Ni:10%, W:90%",4.071,,,
Systematic_Generation,,,Ni20W80,,Pm-3m,,,,,,,,,ALLOY_002177,,,Binary_Alloy,,,Ni_0.20W_0.80,"Ni:20%, W:80%",3.743,,,
Systematic_Generation,,,Ni30W70,,Fm-3m,,,,,,,,,ALLOY_002178,,,Binary_Alloy,,,Ni_0.30W_0.70,"Ni:30%, W:70%",3.34,,,
Systematic_Generation,,,Ni40W60,,Im-3m,,,,,,,,,ALLOY_002179,,,Binary_Alloy,,,Ni_0.40W_0.60,"Ni:40%, W:60%",4.224,,,
Systematic_Generation,,,Ni50W50,,Im-3m,,,,,,,,,ALLOY_002180,,,Binary_Alloy,,,Ni_0.50W_0.50,"Ni:50%, W:50%",2.638,,,
Systematic_Generation,,,Ni60W40,,Pm-3m,,,,,,,,,ALLOY_002181,,,Binary_Alloy,,,Ni_0.60W_0.40,"Ni:60%, W:40%",2.574,,,
Systematic_Generation,,,Ni70W30,,P63/mmc,,,,,,,,,ALLOY_002182,,,Binary_Alloy,,,Ni_0.70W_0.30,"Ni:70%, W:30%",2.598,,,
Systematic_Generation,,,Ni80W20,,Im-3m,,,,,,,,,ALLOY_002183,,,Binary_Alloy,,,Ni_0.80W_0.20,"Ni:80%, W:20%",2.794,,,
Systematic_Generation,,,Ni90W10,,Fm-3m,,,,,,,,,ALLOY_002184,,,Binary_Alloy,,,Ni_0.90W_0.10,"Ni:90%, W:10%",2.823,,,