source,n_elements,doping_concentration,name,termination,space_group,doping_level,volume_fraction,weight_percent,lattice_c,temperature,reinforcement,matrix,layers,material_id,molecular_weight,deposition_method,type,lattice_b,pdi,formula,composition,lattice_a,thickness_nm,dopant,substrate
Systematic_Generation,,,PVC_Mn25k_PDI1.1,,,,,,,,,,,POLY_006150,25000,,Homopolymer,,1.1,{[]CC(Cl)[]},PVC,,,,
Systematic_Generation,,,PVC_Mn25k_PDI1.2,,,,,,,,,,,POLY_006151,25000,,Homopolymer,,1.2,{[]CC(Cl)[]},PVC,,,,
Systematic_Generation,,,PVC_Mn25k_PDI1.5,,,,,,,,,,,POLY_006152,25000,,Homopolymer,,1.5,{[]CC(Cl)[]},PVC,,,,
Systematic_Generation,,,PVC_Mn25k_PDI2.0,,,,,,,,,,,POLY_006153,25000,,Homopolymer,,2.0,{[]CC(Cl)[]},PVC,,,,
Systematic_Generation,,,PVC_Mn25k_PDI2.5,,,,,,,,,,,POLY_006154,25000,,Homopolymer,,2.5,{[]CC(Cl)[]},PVC,,,,
Systematic_Generation,,,PVC_Mn50k_PDI1.05,,,,,,,,,,,POLY_006155,50000,,Homopolymer,,1.05,{[]CC(Cl)[]},PVC,,,,
Systematic_Generation,,,PVC_Mn50k_PDI1.1,,,,,,,,,,,POLY_006156,50000,,Homopolymer,,1.1,{[]CC(Cl)[]},PVC,,,,
Systematic_Generation,,,PVC_Mn50k_PDI1.2,,,,,,,,,,,POLY_006157,50000,,Homopolymer,,1.2,{[]CC(Cl)[]},PVC,,,,
Systematic_Generation,,,PVC_Mn50k_PDI1.5,,,,,,,,,,,POLY_006158,50000,,Homopolymer,,1.5,{[]CC(Cl)[]},PVC,,,,
Systematic_Generation,,,PVC_Mn50k_PDI2.0,,,,,,,,,,,POLY_006159,50000,,Homopolymer,,2.0,{[]CC(Cl)[]},PVC,,,,
Systematic_Generation,,,PVC_Mn50k_PDI2.5,,,,,,,,,,,POLY_006160,50000,,Homopolymer,,2.5,{[]CC(Cl)[]},PVC,,,,
Systematic_Generation,,,PVC_Mn75k_PDI1.05,,,,,,,,,,,POLY_006161,75000,,Homopolymer,,1.05,{[]CC(Cl)[]},PVC,,,,
Systematic_Generation,,,PVC_Mn75k_PDI1.1,,,,,,,,,,,POLY_006162,75000,,Homopolymer,,1.1,{[]CC(Cl)[]},PVC,,,,
Systematic_Generation,,,PVC_Mn75k_PDI1.2,,,,,,,,,,,POLY_006163,75000,,Homopolymer,,1.2,{[]CC(Cl)[]},PVC,,,,
Systematic_Generation,,,PVC_Mn75k_PDI1.5,,,,,,,,,,,POLY_006164,75000,,Homopolymer,,1.5,{[]CC(Cl)[]},PVC,,,,
Systematic_Generation,,,PVC_Mn75k_PDI2.0,,,,,,,,,,,POLY_006165,75000,,Homopolymer,,2.0,{[]CC(Cl)[]},PVC,,,,
Systematic_Generation,,,PVC_Mn75k_PDI2.5,,,,,,,,,,,POLY_006166,75000,,Homopolymer,,2.5,{[]CC(Cl)[]},PVC,,,,
Systematic_Generation,,,PVC_Mn100k_PDI1.05,,,,,,,,,,,POLY_006167,100000,,Homopolymer,,1.05,{[]CC(Cl)[]},PVC,,,,
Systematic_Generation,,,PVC_Mn100k_PDI1.1,,,,,,,,,,,POLY_006168,100000,,Homopolymer,,1.1,{[]CC(Cl)[]},PVC,,,,
Systematic_Generation,,,PVC_Mn100k_PDI1.2,,,,,,,,,,,POLY_006169,100000,,Homopolymer,,1.2,{[]CC(Cl)[]},PVC,,,,
Systematic_Generation,,,PVC_Mn100k_PDI1.5,,,,,,,,,,,POLY_006170,100000,,Homopolymer,,1.5,{[]CC(Cl)[]},PVC,,,,
Systematic_Generation,,,PVC_Mn100k_PDI2.0,,,,,,,,,,,POLY_006171,100000,,Homopolymer,,2.0,{[]CC(Cl)[]},PVC,,,,
Systematic_Generation,,,PVC_Mn100k_PDI2.5,,,,,,,,,,,POLY_006172,100000,,Homopolymer,,2.5,{[]CC(Cl)[]},PVC,,,,
Systematic_Generation,,,PVC_Mn150k_PDI1.05,,,,,,,,,,,POLY_006173,150000,,Homopolymer,,1.05,{[]CC(Cl)[]},PVC,,,,
Systematic_Generation,,,PVC_Mn150k_PDI1.1,,,,,,,,,,,POLY_006174,150000,,Homopolymer,,1.1,{[]CC(Cl)[]},PVC,,,,
Systematic_Generation,,,PVC_Mn150k_PDI1.2,,,,,,,,,,,POLY_006175,150000,,Homopolymer,,1.2,{[]CC(Cl)[]},PVC,,,,
Systematic_Generation,,,PVC_Mn150k_PDI1.5,,,,,,,,,,,POLY_006176,150000,,Homopolymer,,1.5,{[]CC(Cl)[]},PVC,,,,
Systematic_Generation,,,PVC_Mn150k_PDI2.0,,,,,,,,,,,POLY_006177,150000,,Homopolymer,,2.0,{[]CC(Cl)[]},PVC,,,,
Systematic_Generation,,,PVC_Mn150k_PDI2.5,,,,,,,,,,,POLY_006178,150000,,Homopolymer,,2.5,{[]CC(Cl)[]},PVC,,,,
Systematic_Generation,,,PVC_Mn200k_PDI1.05,,,,,,,,,,,POLY_006179,200000,,Homopolymer,,1.05,{[]CC(Cl)[]},PVC,,,,
Systematic_Generation,,,PVC_Mn200k_PDI1.1,,,,,,,,,,,POLY_006180,200000,,Homopolymer,,1.1,{[]CC(Cl)[]},PVC,,,,
Systematic_Generation,,,PVC_Mn200k_PDI1.2,,,,,,,,,,,POLY_006181,200000,,Homopolymer,,1.2,{[]CC(Cl)[]},PVC,,,,
Systematic_Generation,,,PVC_Mn200k_PDI1.5,,,,,,,,,,,POLY_006182,200000,,Homopolymer,,1.5,{[]CC(Cl)[]},PVC,,,,
Systematic_Generation,,,PVC_Mn200k_PDI2.0,,,,,,,,,,,POLY_006183,200000,,Homopolymer,,2.0,{[]CC(Cl)[]},PVC,,,,
Systematic_Generation,,,PVC_Mn200k_PDI2.5,,,,,,,,,,,POLY_006184,200000,,Homopolymer,,2.5,{[]CC(Cl)[]},PVC,,,,
Systematic_Generation,,,PVC_Mn300k_PDI1.05,,,,,,,,,,,POLY_006185,300000,,Homopolymer,,1.05,{[]CC(Cl)[]},PVC,,,,
Systematic_Generation,,,PVC_Mn300k_PDI1.1,,,,,,,,,,,POLY_006186,300000,,Homopolymer,,1.1,{[]CC(Cl)[]},PVC,,,,
Systematic_Generation,,,PVC_Mn300k_PDI1.2,,,,,,,,,,,POLY_006187,300000,,Homopolymer,,1.2,{[]CC(Cl)[]},PVC,,,,
Systematic_Generation,,,PVC_Mn300k_PDI1.5,,,,,,,,,,,POLY_006188,300000,,Homopolymer,,1.5,{[]CC(Cl)[]},PVC,,,,
Systematic_Generation,,,PVC_Mn300k_PDI2.0,,,,,,,,,,,POLY_006189,300000,,Homopolymer,,2.0,{[]CC(Cl)[]},PVC,,,,
Systematic_Generation,,,PVC_Mn300k_PDI2.5,,,,,,,,,,,POLY_006190,300000,,Homopolymer,,2.5,{[]CC(Cl)[]},PVC,,,,
Systematic_Generation,,,PVC_Mn500k_PDI1.05,,,,,,,,,,,POLY_006191,500000,,Homopolymer,,1.05,{[]CC(Cl)[]},PVC,,,,
Systematic_Generation,,,PVC_Mn500k_PDI1.1,,,,,,,,,,,POLY_006192,500000,,Homopolymer,,1.1,{[]CC(Cl)[]},PVC,,,,
Systematic_Generation,,,PVC_Mn500k_PDI1.2,,,,,,,,,,,POLY_006193,500000,,Homopolymer,,1.2,{[]CC(Cl)[]},PVC,,,,
Systematic_Generation,,,PVC_Mn500k_PDI1.5,,,,,,,,,,,POLY_006194,500000,,Homopolymer,,1.5,{[]CC(Cl)[]},PVC,,,,
Systematic_Generation,,,PVC_Mn500k_PDI2.0,,,,,,,,,,,POLY_006195,500000,,Homopolymer,,2.0,{[]CC(Cl)[]},PVC,,,,
Systematic_Generation,,,PVC_Mn500k_PDI2.5,,,,,,,,,,,POLY_006196,500000,,Homopolymer,,2.5,{[]CC(Cl)[]},PVC,,,,
Systematic_Generation,,,PVC_Mn750k_PDI1.05,,,,,,,,,,,POLY_006197,750000,,Homopolymer,,1.05,{[]CC(Cl)[]},PVC,,,,
Systematic_Generation,,,PVC_Mn750k_PDI1.1,,,,,,,,,,,POLY_006198,750000,,Homopolymer,,1.1,{[]CC(Cl)[]},PVC,,,,
Systematic_Generation,,,PVC_Mn750k_PDI1.2,,,,,,,,,,,POLY_006199,750000,,Homopolymer,,1.2,{[]CC(Cl)[]},PVC,,,,
Systematic_Generation,,,PVC_Mn750k_PDI1.5,,,,,,,,,,,POLY_006200,750000,,Homopolymer,,1.5,{[]CC(Cl)[]},PVC,,,,
Systematic_Generation,,,PVC_Mn750k_PDI2.0,,,,,,,,,,,POLY_006201,750000,,Homopolymer,,2.0,{[]CC(Cl)[]},PVC,,,,
Systematic_Generation,,,PVC_Mn750k_PDI2.5,,,,,,,,,,,POLY_006202,750000,,Homopolymer,,2.5,{[]CC(Cl)[]},PVC,,,,
Systematic_Generation,,,PVC_Mn1000k_PDI1.05,,,,,,,,,,,POLY_006203,1000000,,Homopolymer,,1.05,{[]CC(Cl)[]},PVC,,,,
Systematic_Generation,,,PVC_Mn1000k_PDI1.1,,,,,,,,,,,POLY_006204,1000000,,Homopolymer,,1.1,{[]CC(Cl)[]},PVC,,,,
Systematic_Generation,,,PVC_Mn1000k_PDI1.2,,,,,,,,,,,POLY_006205,1000000,,Homopolymer,,1.2,{[]CC(Cl)[]},PVC,,,,
Systematic_Generation,,,PVC_Mn1000k_PDI1.5,,,,,,,,,,,POLY_006206,1000000,,Homopolymer,,1.5,{[]CC(Cl)[]},PVC,,,,
Systematic_Generation,,,PVC_Mn1000k_PDI2.0,,,,,,,,,,,POLY_006207,1000000,,Homopolymer,,2.0,{[]CC(Cl)[]},PVC,,,,
Systematic_Generation,,,PVC_Mn1000k_PDI2.5,,,,,,,,,,,POLY_006208,1000000,,Homopolymer,,2.5,{[]CC(Cl)[]},PVC,,,,
Systematic_Generation,,,PET_Mn5k_PDI1.05,,,,,,,,,,,POLY_006209,5000,,Homopolymer,,1.05,{[]OC(=O)c1ccc(C(=O)O)cc1.OCCO[]},PET,,,,
Systematic_Generation,,,PET_Mn5k_PDI1.1,,,,,,,,,,,POLY_006210,5000,,Homopolymer,,1.1,{[]OC(=O)c1ccc(C(=O)O)cc1.OCCO[]},PET,,,,
Systematic_Generation,,,PET_Mn5k_PDI1.2,,,,,,,,,,,POLY_006211,5000,,Homopolymer,,1.2,{[]OC(=O)c1ccc(C(=O)O)cc1.OCCO[]},PET,,,,
Systematic_Generation,,,PET_Mn5k_PDI1.5,,,,,,,,,,,POLY_006212,5000,,Homopolymer,,1.5,{[]OC(=O)c1ccc(C(=O)O)cc1.OCCO[]},PET,,,,
Systematic_Generation,,,PET_Mn5k_PDI2.0,,,,,,,,,,,POLY_006213,5000,,Homopolymer,,2.0,{[]OC(=O)c1ccc(C(=O)O)cc1.OCCO[]},PET,,,,
Systematic_Generation,,,PET_Mn5k_PDI2.5,,,,,,,,,,,POLY_006214,5000,,Homopolymer,,2.5,{[]OC(=O)c1ccc(C(=O)O)cc1.OCCO[]},PET,,,,
Systematic_Generation,,,PET_Mn10k_PDI1.05,,,,,,,,,,,POLY_006215,10000,,Homopolymer,,1.05,{[]OC(=O)c1ccc(C(=O)O)cc1.OCCO[]},PET,,,,
Systematic_Generation,,,PET_Mn10k_PDI1.1,,,,,,,,,,,POLY_006216,10000,,Homopolymer,,1.1,{[]OC(=O)c1ccc(C(=O)O)cc1.OCCO[]},PET,,,,
Systematic_Generation,,,PET_Mn10k_PDI1.2,,,,,,,,,,,POLY_006217,10000,,Homopolymer,,1.2,{[]OC(=O)c1ccc(C(=O)O)cc1.OCCO[]},PET,,,,
Systematic_Generation,,,PET_Mn10k_PDI1.5,,,,,,,,,,,POLY_006218,10000,,Homopolymer,,1.5,{[]OC(=O)c1ccc(C(=O)O)cc1.OCCO[]},PET,,,,
Systematic_Generation,,,PET_Mn10k_PDI2.0,,,,,,,,,,,POLY_006219,10000,,Homopolymer,,2.0,{[]OC(=O)c1ccc(C(=O)O)cc1.OCCO[]},PET,,,,
Systematic_Generation,,,PET_Mn10k_PDI2.5,,,,,,,,,,,POLY_006220,10000,,Homopolymer,,2.5,{[]OC(=O)c1ccc(C(=O)O)cc1.OCCO[]},PET,,,,
Systematic_Generation,,,PET_Mn25k_PDI1.05,,,,,,,,,,,POLY_006221,25000,,Homopolymer,,1.05,{[]OC(=O)c1ccc(C(=O)O)cc1.OCCO[]},PET,,,,
Systematic_Generation,,,PET_Mn25k_PDI1.1,,,,,,,,,,,POLY_006222,25000,,Homopolymer,,1.1,{[]OC(=O)c1ccc(C(=O)O)cc1.OCCO[]},PET,,,,
Systematic_Generation,,,PET_Mn25k_PDI1.2,,,,,,,,,,,POLY_006223,25000,,Homopolymer,,1.2,{[]OC(=O)c1ccc(C(=O)O)cc1.OCCO[]},PET,,,,
Systematic_Generation,,,PET_Mn25k_PDI1.5,,,,,,,,,,,POLY_006224,25000,,Homopolymer,,1.5,{[]OC(=O)c1ccc(C(=O)O)cc1.OCCO[]},PET,,,,
Systematic_Generation,,,PET_Mn25k_PDI2.0,,,,,,,,,,,POLY_006225,25000,,Homopolymer,,2.0,{[]OC(=O)c1ccc(C(=O)O)cc1.OCCO[]},PET,,,,
Systematic_Generation,,,PET_Mn25k_PDI2.5,,,,,,,,,,,POLY_006226,25000,,Homopolymer,,2.5,{[]OC(=O)c1ccc(C(=O)O)cc1.OCCO[]},PET,,,,
Systematic_Generation,,,PET_Mn50k_PDI1.05,,,,,,,,,,,POLY_006227,50000,,Homopolymer,,1.05,{[]OC(=O)c1ccc(C(=O)O)cc1.OCCO[]},PET,,,,
Systematic_Generation,,,PET_Mn50k_PDI1.1,,,,,,,,,,,POLY_006228,50000,,Homopolymer,,1.1,{[]OC(=O)c1ccc(C(=O)O)cc1.OCCO[]},PET,,,,
Systematic_Generation,,,PET_Mn50k_PDI1.2,,,,,,,,,,,POLY_006229,50000,,Homopolymer,,1.2,{[]OC(=O)c1ccc(C(=O)O)cc1.OCCO[]},PET,,,,
Systematic_Generation,,,PET_Mn50k_PDI1.5,,,,,,,,,,,POLY_006230,50000,,Homopolymer,,1.5,{[]OC(=O)c1ccc(C(=O)O)cc1.OCCO[]},PET,,,,
Systematic_Generation,,,PET_Mn50k_PDI2.0,,,,,,,,,,,POLY_006231,50000,,Homopolymer,,2.0,{[]OC(=O)c1ccc(C(=O)O)cc1.OCCO[]},PET,,,,
Systematic_Generation,,,PET_Mn50k_PDI2.5,,,,,,,,,,,POLY_006232,50000,,Homopolymer,,2.5,{[]OC(=O)c1ccc(C(=O)O)cc1.OCCO[]},PET,,,,
Systematic_Generation,,,PET_Mn75k_PDI1.05,,,,,,,,,,,POLY_006233,75000,,Homopolymer,,1.05,{[]OC(=O)c1ccc(C(=O)O)cc1.OCCO[]},PET,,,,
Systematic_Generation,,,PET_Mn75k_PDI1.1,,,,,,,,,,,POLY_006234,75000,,Homopolymer,,1.1,{[]OC(=O)c1ccc(C(=O)O)cc1.OCCO[]},PET,,,,
Systematic_Generation,,,PET_Mn75k_PDI1.2,,,,,,,,,,,POLY_006235,75000,,Homopolymer,,1.2,{[]OC(=O)c1ccc(C(=O)O)cc1.OCCO[]},PET,,,,
Systematic_Generation,,,PET_Mn75k_PDI1.5,,,,,,,,,,,POLY_006236,75000,,Homopolymer,,1.5,{[]OC(=O)c1ccc(C(=O)O)cc1.OCCO[]},PET,,,,
Systematic_Generation,,,PET_Mn75k_PDI2.0,,,,,,,,,,,POLY_006237,75000,,Homopolymer,,2.0,{[]OC(=O)c1ccc(C(=O)O)cc1.OCCO[]},PET,,,,
Systematic_Generation,,,PET_Mn75k_PDI2.5,,,,,,,,,,,POLY_006238,75000,,Homopolymer,,2.5,{[]OC(=O)c1ccc(C(=O)O)cc1.OCCO[]},PET,,,,
Systematic_Generation,,,PET_Mn100k_PDI1.05,,,,,,,,,,,POLY_006239,100000,,Homopolymer,,1.05,{[]OC(=O)c1ccc(C(=O)O)cc1.OCCO[]},PET,,,,
Systematic_Generation,,,PET_Mn100k_PDI1.1,,,,,,,,,,,POLY_006240,100000,,Homopolymer,,1.1,{[]OC(=O)c1ccc(C(=O)O)cc1.OCCO[]},PET,,,,
Systematic_Generation,,,PET_Mn100k_PDI1.2,,,,,,,,,,,POLY_006241,100000,,Homopolymer,,1.2,{[]OC(=O)c1ccc(C(=O)O)cc1.OCCO[]},PET,,,,
Systematic_Generation,,,PET_Mn100k_PDI1.5,,,,,,,,,,,POLY_006242,100000,,Homopolymer,,1.5,{[]OC(=O)c1ccc(C(=O)O)cc1.OCCO[]},PET,,,,
Systematic_Generation,,,PET_Mn100k_PDI2.0,,,,,,,,,,,POLY_006243,100000,,Homopolymer,,2.0,{[]OC(=O)c1ccc(C(=O)O)cc1.OCCO[]},PET,,,,
Systematic_Generation,,,PET_Mn100k_PDI2.5,,,,,,,,,,,POLY_006244,100000,,Homopolymer,,2.5,{[]OC(=O)c1ccc(C(=O)O)cc1.OCCO[]},PET,,,,
Systematic_Generation,,,PET_Mn150k_PDI1.05,,,,,,,,,,,POLY_006245,150000,,Homopolymer,,1.05,{[]OC(=O)c1ccc(C(=O)O)cc1.OCCO[]},PET,,,,
Systematic_Generation,,,PET_Mn150k_PDI1.1,,,,,,,,,,,POLY_006246,150000,,Homopolymer,,1.1,{[]OC(=O)c1ccc(C(=O)O)cc1.OCCO[]},PET,,,,
Systematic_Generation,,,PET_Mn150k_PDI1.2,,,,,,,,,,,POLY_006247,150000,,Homopolymer,,1.2,{[]OC(=O)c1ccc(C(=O)O)cc1.OCCO[]},PET,,,,
Systematic_Generation,,,PET_Mn150k_PDI1.5,,,,,,,,,,,POLY_006248,150000,,Homopolymer,,1.5,{[]OC(=O)c1ccc(C(=O)O)cc1.OCCO[]},PET,,,,
Systematic_Generation,,,PET_Mn150k_PDI2.0,,,,,,,,,,,POLY_006249,150000,,Homopolymer,,2.0,{[]OC(=O)c1ccc(C(=O)O)cc1.OCCO[]},PET,,,,
Systematic_Generation,,,PET_Mn150k_PDI2.5,,,,,,,,,,,POLY_006250,150000,,Homopolymer,,2.5,{[]OC(=O)c1ccc(C(=O)O)cc1.OCCO[]},PET,,,,
Systematic_Generation,,,PET_Mn200k_PDI1.05,,,,,,,,,,,POLY_006251,200000,,Homopolymer,,1.05,{[]OC(=O)c1ccc(C(=O)O)cc1.OCCO[]},PET,,,,
Systematic_Generation,,,PET_Mn200k_PDI1.1,,,,,,,,,,,POLY_006252,200000,,Homopolymer,,1.1,{[]OC(=O)c1ccc(C(=O)O)cc1.OCCO[]},PET,,,,
Systematic_Generation,,,PET_Mn200k_PDI1.2,,,,,,,,,,,POLY_006253,200000,,Homopolymer,,1.2,{[]OC(=O)c1ccc(C(=O)O)cc1.OCCO[]},PET,,,,
Systematic_Generation,,,PET_Mn200k_PDI1.5,,,,,,,,,,,POLY_006254,200000,,Homopolymer,,1.5,{[]OC(=O)c1ccc(C(=O)O)cc1.OCCO[]},PET,,,,
Systematic_Generation,,,PET_Mn200k_PDI2.0,,,,,,,,,,,POLY_006255,200000,,Homopolymer,,2.0,{[]OC(=O)c1ccc(C(=O)O)cc1.OCCO[]},PET,,,,
Systematic_Generation,,,PET_Mn200k_PDI2.5,,,,,,,,,,,POLY_006256,200000,,Homopolymer,,2.5,{[]OC(=O)c1ccc(C(=O)O)cc1.OCCO[]},PET,,,,
Systematic_Generation,,,PET_Mn300k_PDI1.05,,,,,,,,,,,POLY_006257,300000,,Homopolymer,,1.05,{[]OC(=O)c1ccc(C(=O)O)cc1.OCCO[]},PET,,,,
Systematic_Generation,,,PET_Mn300k_PDI1.1,,,,,,,,,,,POLY_006258,300000,,Homopolymer,,1.1,{[]OC(=O)c1ccc(C(=O)O)cc1.OCCO[]},PET,,,,
Systematic_Generation,,,PET_Mn300k_PDI1.2,,,,,,,,,,,POLY_006259,300000,,Homopolymer,,1.2,{[]OC(=O)c1ccc(C(=O)O)cc1.OCCO[]},PET,,,,
Systematic_Generation,,,PET_Mn300k_PDI1.5,,,,,,,,,,,POLY_006260,300000,,Homopolymer,,1.5,{[]OC(=O)c1ccc(C(=O)O)cc1.OCCO[]},PET,,,,
Systematic_Generation,,,PET_Mn300k_PDI2.0,,,,,,,,,,,POLY_006261,300000,,Homopolymer,,2.0,{[]OC(=O)c1ccc(C(=O)O)cc1.OCCO[]},PET,,,,
Systematic_Generation,,,PET_Mn300k_PDI2.5,,,,,,,,,,,POLY_006262,300000,,Homopolymer,,2.5,{[]OC(=O)c1ccc(C(=O)O)cc1.OCCO[]},PET,,,,
Systematic_Generation,,,PET_Mn500k_PDI1.05,,,,,,,,,,,POLY_006263,500000,,Homopolymer,,1.05,{[]OC(=O)c1ccc(C(=O)O)cc1.OCCO[]},PET,,,,
Systematic_Generation,,,PET_Mn500k_PDI1.1,,,,,,,,,,,POLY_006264,500000,,Homopolymer,,1.1,{[]OC(=O)c1ccc(C(=O)O)cc1.OCCO[]},PET,,,,
Systematic_Generation,,,PET_Mn500k_PDI1.2,,,,,,,,,,,POLY_006265,500000,,Homopolymer,,1.2,{[]OC(=O)c1ccc(C(=O)O)cc1.OCCO[]},PET,,,,
Systematic_Generation,,,PET_Mn500k_PDI1.5,,,,,,,,,,,POLY_006266,500000,,Homopolymer,,1.5,{[]OC(=O)c1ccc(C(=O)O)cc1.OCCO[]},PET,,,,
Systematic_Generation,,,PET_Mn500k_PDI2.0,,,,,,,,,,,POLY_006267,500000,,Homopolymer,,2.0,{[]OC(=O)c1ccc(C(=O)O)cc1.OCCO[]},PET,,,,
Systematic_Generation,,,PET_Mn500k_PDI2.5,,,,,,,,,,,POLY_006268,500000,,Homopolymer,,2.5,{[]OC(=O)c1ccc(C(=O)O)cc1.OCCO[]},PET,,,,
Systematic_Generation,,,PET_Mn750k_PDI1.05,,,,,,,,,,,POLY_006269,750000,,Homopolymer,,1.05,{[]OC(=O)c1ccc(C(=O)O)cc1.OCCO[]},PET,,,,
Systematic_Generation,,,PET_Mn750k_PDI1.1,,,,,,,,,,,POLY_006270,750000,,Homopolymer,,1.1,{[]OC(=O)c1ccc(C(=O)O)cc1.OCCO[]},PET,,,,
Systematic_Generation,,,PET_Mn750k_PDI1.2,,,,,,,,,,,POLY_006271,750000,,Homopolymer,,1.2,{[]OC(=O)c1ccc(C(=O)O)cc1.OCCO[]},PET,,,,
Systematic_Generation,,,PET_Mn750k_PDI1.5,,,,,,,,,,,POLY_006272,750000,,Homopolymer,,1.5,{[]OC(=O)c1ccc(C(=O)O)cc1.OCCO[]},PET,,,,
Systematic_Generation,,,PET_Mn750k_PDI2.0,,,,,,,,,,,POLY_006273,750000,,Homopolymer,,2.0,{[]OC(=O)c1ccc(C(=O)O)cc1.OCCO[]},PET,,,,
Systematic_Generation,,,PET_Mn750k_PDI2.5,,,,,,,,,,,POLY_006274,750000,,Homopolymer,,2.5,{[]OC(=O)c1ccc(C(=O)O)cc1.OCCO[]},PET,,,,
Systematic_Generation,,,PET_Mn1000k_PDI1.05,,,,,,,,,,,POLY_006275,1000000,,Homopolymer,,1.05,{[]OC(=O)c1ccc(C(=O)O)cc1.OCCO[]},PET,,,,
Systematic_Generation,,,PET_Mn1000k_PDI1.1,,,,,,,,,,,POLY_006276,1000000,,Homopolymer,,1.1,{[]OC(=O)c1ccc(C(=O)O)cc1.OCCO[]},PET,,,,
Systematic_Generation,,,PET_Mn1000k_PDI1.2,,,,,,,,,,,POLY_006277,1000000,,Homopolymer,,1.2,{[]OC(=O)c1ccc(C(=O)O)cc1.OCCO[]},PET,,,,
Systematic_Generation,,,PET_Mn1000k_PDI1.5,,,,,,,,,,,POLY_006278,1000000,,Homopolymer,,1.5,{[]OC(=O)c1ccc(C(=O)O)cc1.OCCO[]},PET,,,,
Systematic_Generation,,,PET_Mn1000k_PDI2.0,,,,,,,,,,,POLY_006279,1000000,,Homopolymer,,2.0,{[]OC(=O)c1ccc(C(=O)O)cc1.OCCO[]},PET,,,,
Systematic_Generation,,,PET_Mn1000k_PDI2.5,,,,,,,,,,,POLY_006280,1000000,,Homopolymer,,2.5,{[]OC(=O)c1ccc(C(=O)O)cc1.OCCO[]},PET,,,,
Systematic_Generation,,,PA6_Mn5k_PDI1.05,,,,,,,,,,,POLY_006281,5000,,Homopolymer,,1.05,{[]NC(=O)CCCCC[]},PA6,,,,
Systematic_Generation,,,PA6_Mn5k_PDI1.1,,,,,,,,,,,POLY_006282,5000,,Homopolymer,,1.1,{[]NC(=O)CCCCC[]},PA6,,,,
Systematic_Generation,,,PA6_Mn5k_PDI1.2,,,,,,,,,,,POLY_006283,5000,,Homopolymer,,1.2,{[]NC(=O)CCCCC[]},PA6,,,,
Systematic_Generation,,,PA6_Mn5k_PDI1.5,,,,,,,,,,,POLY_006284,5000,,Homopolymer,,1.5,{[]NC(=O)CCCCC[]},PA6,,,,
Systematic_Generation,,,PA6_Mn5k_PDI2.0,,,,,,,,,,,POLY_006285,5000,,Homopolymer,,2.0,{[]NC(=O)CCCCC[]},PA6,,,,
Systematic_Generation,,,PA6_Mn5k_PDI2.5,,,,,,,,,,,POLY_006286,5000,,Homopolymer,,2.5,{[]NC(=O)CCCCC[]},PA6,,,,
Systematic_Generation,,,PA6_Mn10k_PDI1.05,,,,,,,,,,,POLY_006287,10000,,Homopolymer,,1.05,{[]NC(=O)CCCCC[]},PA6,,,,
Systematic_Generation,,,PA6_Mn10k_PDI1.1,,,,,,,,,,,POLY_006288,10000,,Homopolymer,,1.1,{[]NC(=O)CCCCC[]},PA6,,,,
Systematic_Generation,,,PA6_Mn10k_PDI1.2,,,,,,,,,,,POLY_006289,10000,,Homopolymer,,1.2,{[]NC(=O)CCCCC[]},PA6,,,,
Systematic_Generation,,,PA6_Mn10k_PDI1.5,,,,,,,,,,,POLY_006290,10000,,Homopolymer,,1.5,{[]NC(=O)CCCCC[]},PA6,,,,
Systematic_Generation,,,PA6_Mn10k_PDI2.0,,,,,,,,,,,POLY_006291,10000,,Homopolymer,,2.0,{[]NC(=O)CCCCC[]},PA6,,,,
Systematic_Generation,,,PA6_Mn10k_PDI2.5,,,,,,,,,,,POLY_006292,10000,,Homopolymer,,2.5,{[]NC(=O)CCCCC[]},PA6,,,,
Systematic_Generation,,,PA6_Mn25k_PDI1.05,,,,,,,,,,,POLY_006293,25000,,Homopolymer,,1.05,{[]NC(=O)CCCCC[]},PA6,,,,
Systematic_Generation,,,PA6_Mn25k_PDI1.1,,,,,,,,,,,POLY_006294,25000,,Homopolymer,,1.1,{[]NC(=O)CCCCC[]},PA6,,,,
Systematic_Generation,,,PA6_Mn25k_PDI1.2,,,,,,,,,,,POLY_006295,25000,,Homopolymer,,1.2,{[]NC(=O)CCCCC[]},PA6,,,,
Systematic_Generation,,,PA6_Mn25k_PDI1.5,,,,,,,,,,,POLY_006296,25000,,Homopolymer,,1.5,{[]NC(=O)CCCCC[]},PA6,,,,
Systematic_Generation,,,PA6_Mn25k_PDI2.0,,,,,,,,,,,POLY_006297,25000,,Homopolymer,,2.0,{[]NC(=O)CCCCC[]},PA6,,,,
Systematic_Generation,,,PA6_Mn25k_PDI2.5,,,,,,,,,,,POLY_006298,25000,,Homopolymer,,2.5,{[]NC(=O)CCCCC[]},PA6,,,,
Systematic_Generation,,,PA6_Mn50k_PDI1.05,,,,,,,,,,,POLY_006299,50000,,Homopolymer,,1.05,{[]NC(=O)CCCCC[]},PA6,,,,
Systematic_Generation,,,PA6_Mn50k_PDI1.1,,,,,,,,,,,POLY_006300,50000,,Homopolymer,,1.1,{[]NC(=O)CCCCC[]},PA6,,,,
Systematic_Generation,,,PA6_Mn50k_PDI1.2,,,,,,,,,,,POLY_006301,50000,,Homopolymer,,1.2,{[]NC(=O)CCCCC[]},PA6,,,,
Systematic_Generation,,,PA6_Mn50k_PDI1.5,,,,,,,,,,,POLY_006302,50000,,Homopolymer,,1.5,{[]NC(=O)CCCCC[]},PA6,,,,
Systematic_Generation,,,PA6_Mn50k_PDI2.0,,,,,,,,,,,POLY_006303,50000,,Homopolymer,,2.0,{[]NC(=O)CCCCC[]},PA6,,,,
Systematic_Generation,,,PA6_Mn50k_PDI2.5,,,,,,,,,,,POLY_006304,50000,,Homopolymer,,2.5,{[]NC(=O)CCCCC[]},PA6,,,,
Systematic_Generation,,,PA6_Mn75k_PDI1.05,,,,,,,,,,,POLY_006305,75000,,Homopolymer,,1.05,{[]NC(=O)CCCCC[]},PA6,,,,
Systematic_Generation,,,PA6_Mn75k_PDI1.1,,,,,,,,,,,POLY_006306,75000,,Homopolymer,,1.1,{[]NC(=O)CCCCC[]},PA6,,,,
Systematic_Generation,,,PA6_Mn75k_PDI1.2,,,,,,,,,,,POLY_006307,75000,,Homopolymer,,1.2,{[]NC(=O)CCCCC[]},PA6,,,,
Systematic_Generation,,,PA6_Mn75k_PDI1.5,,,,,,,,,,,POLY_006308,75000,,Homopolymer,,1.5,{[]NC(=O)CCCCC[]},PA6,,,,
Systematic_Generation,,,PA6_Mn75k_PDI2.0,,,,,,,,,,,POLY_006309,75000,,Homopolymer,,2.0,{[]NC(=O)CCCCC[]},PA6,,,,
Systematic_Generation,,,PA6_Mn75k_PDI2.5,,,,,,,,,,,POLY_006310,75000,,Homopolymer,,2.5,{[]NC(=O)CCCCC[]},PA6,,,,
Systematic_Generation,,,PA6_Mn100k_PDI1.05,,,,,,,,,,,POLY_006311,100000,,Homopolymer,,1.05,{[]NC(=O)CCCCC[]},PA6,,,,
Systematic_Generation,,,PA6_Mn100k_PDI1.1,,,,,,,,,,,POLY_006312,100000,,Homopolymer,,1.1,{[]NC(=O)CCCCC[]},PA6,,,,
Systematic_Generation,,,PA6_Mn100k_PDI1.2,,,,,,,,,,,POLY_006313,100000,,Homopolymer,,1.2,{[]NC(=O)CCCCC[]},PA6,,,,