source,n_elements,doping_concentration,name,termination,space_group,doping_level,volume_fraction,weight_percent,lattice_c,temperature,reinforcement,matrix,layers,material_id,molecular_weight,deposition_method,type,lattice_b,pdi,formula,composition,lattice_a,thickness_nm,dopant,substrate
Systematic_Generation,,1e+21,CdS:Bi_1.0e+21,,Inherited,,,,,,,,,DOPED_005213,,,Doped_Semiconductor,,,CdS_Bi,CdS + Bi @ 1.0e+21 cm^-3,,,Bi,
Systematic_Generation,,1000000000000000.0,CdS:Li_1.0e+15,,Inherited,,,,,,,,,DOPED_005214,,,Doped_Semiconductor,,,CdS_Li,CdS + Li @ 1.0e+15 cm^-3,,,Li,
Systematic_Generation,,5000000000000000.0,CdS:Li_5.0e+15,,Inherited,,,,,,,,,DOPED_005215,,,Doped_Semiconductor,,,CdS_Li,CdS + Li @ 5.0e+15 cm^-3,,,Li,
Systematic_Generation,,1e+16,CdS:Li_1.0e+16,,Inherited,,,,,,,,,DOPED_005216,,,Doped_Semiconductor,,,CdS_Li,CdS + Li @ 1.0e+16 cm^-3,,,Li,
Systematic_Generation,,5e+16,CdS:Li_5.0e+16,,Inherited,,,,,,,,,DOPED_005217,,,Doped_Semiconductor,,,CdS_Li,CdS + Li @ 5.0e+16 cm^-3,,,Li,
Systematic_Generation,,1e+17,CdS:Li_1.0e+17,,Inherited,,,,,,,,,DOPED_005218,,,Doped_Semiconductor,,,CdS_Li,CdS + Li @ 1.0e+17 cm^-3,,,Li,
Systematic_Generation,,5e+17,CdS:Li_5.0e+17,,Inherited,,,,,,,,,DOPED_005219,,,Doped_Semiconductor,,,CdS_Li,CdS + Li @ 5.0e+17 cm^-3,,,Li,
Systematic_Generation,,1e+18,CdS:Li_1.0e+18,,Inherited,,,,,,,,,DOPED_005220,,,Doped_Semiconductor,,,CdS_Li,CdS + Li @ 1.0e+18 cm^-3,,,Li,
Systematic_Generation,,5e+18,CdS:Li_5.0e+18,,Inherited,,,,,,,,,DOPED_005221,,,Doped_Semiconductor,,,CdS_Li,CdS + Li @ 5.0e+18 cm^-3,,,Li,
Systematic_Generation,,1e+19,CdS:Li_1.0e+19,,Inherited,,,,,,,,,DOPED_005222,,,Doped_Semiconductor,,,CdS_Li,CdS + Li @ 1.0e+19 cm^-3,,,Li,
Systematic_Generation,,5e+19,CdS:Li_5.0e+19,,Inherited,,,,,,,,,DOPED_005223,,,Doped_Semiconductor,,,CdS_Li,CdS + Li @ 5.0e+19 cm^-3,,,Li,
Systematic_Generation,,1e+20,CdS:Li_1.0e+20,,Inherited,,,,,,,,,DOPED_005224,,,Doped_Semiconductor,,,CdS_Li,CdS + Li @ 1.0e+20 cm^-3,,,Li,
Systematic_Generation,,1e+21,CdS:Li_1.0e+21,,Inherited,,,,,,,,,DOPED_005225,,,Doped_Semiconductor,,,CdS_Li,CdS + Li @ 1.0e+21 cm^-3,,,Li,
Systematic_Generation,,1000000000000000.0,CdS:S_1.0e+15,,Inherited,,,,,,,,,DOPED_005226,,,Doped_Semiconductor,,,CdS_S,CdS + S @ 1.0e+15 cm^-3,,,S,
Systematic_Generation,,5000000000000000.0,CdS:S_5.0e+15,,Inherited,,,,,,,,,DOPED_005227,,,Doped_Semiconductor,,,CdS_S,CdS + S @ 5.0e+15 cm^-3,,,S,
Systematic_Generation,,1e+16,CdS:S_1.0e+16,,Inherited,,,,,,,,,DOPED_005228,,,Doped_Semiconductor,,,CdS_S,CdS + S @ 1.0e+16 cm^-3,,,S,
Systematic_Generation,,5e+16,CdS:S_5.0e+16,,Inherited,,,,,,,,,DOPED_005229,,,Doped_Semiconductor,,,CdS_S,CdS + S @ 5.0e+16 cm^-3,,,S,
Systematic_Generation,,1e+17,CdS:S_1.0e+17,,Inherited,,,,,,,,,DOPED_005230,,,Doped_Semiconductor,,,CdS_S,CdS + S @ 1.0e+17 cm^-3,,,S,
Systematic_Generation,,5e+17,CdS:S_5.0e+17,,Inherited,,,,,,,,,DOPED_005231,,,Doped_Semiconductor,,,CdS_S,CdS + S @ 5.0e+17 cm^-3,,,S,
Systematic_Generation,,1e+18,CdS:S_1.0e+18,,Inherited,,,,,,,,,DOPED_005232,,,Doped_Semiconductor,,,CdS_S,CdS + S @ 1.0e+18 cm^-3,,,S,
Systematic_Generation,,5e+18,CdS:S_5.0e+18,,Inherited,,,,,,,,,DOPED_005233,,,Doped_Semiconductor,,,CdS_S,CdS + S @ 5.0e+18 cm^-3,,,S,
Systematic_Generation,,1e+19,CdS:S_1.0e+19,,Inherited,,,,,,,,,DOPED_005234,,,Doped_Semiconductor,,,CdS_S,CdS + S @ 1.0e+19 cm^-3,,,S,
Systematic_Generation,,5e+19,CdS:S_5.0e+19,,Inherited,,,,,,,,,DOPED_005235,,,Doped_Semiconductor,,,CdS_S,CdS + S @ 5.0e+19 cm^-3,,,S,
Systematic_Generation,,1e+20,CdS:S_1.0e+20,,Inherited,,,,,,,,,DOPED_005236,,,Doped_Semiconductor,,,CdS_S,CdS + S @ 1.0e+20 cm^-3,,,S,
Systematic_Generation,,1e+21,CdS:S_1.0e+21,,Inherited,,,,,,,,,DOPED_005237,,,Doped_Semiconductor,,,CdS_S,CdS + S @ 1.0e+21 cm^-3,,,S,
Systematic_Generation,,1000000000000000.0,CdS:Se_1.0e+15,,Inherited,,,,,,,,,DOPED_005238,,,Doped_Semiconductor,,,CdS_Se,CdS + Se @ 1.0e+15 cm^-3,,,Se,
Systematic_Generation,,5000000000000000.0,CdS:Se_5.0e+15,,Inherited,,,,,,,,,DOPED_005239,,,Doped_Semiconductor,,,CdS_Se,CdS + Se @ 5.0e+15 cm^-3,,,Se,
Systematic_Generation,,1e+16,CdS:Se_1.0e+16,,Inherited,,,,,,,,,DOPED_005240,,,Doped_Semiconductor,,,CdS_Se,CdS + Se @ 1.0e+16 cm^-3,,,Se,
Systematic_Generation,,5e+16,CdS:Se_5.0e+16,,Inherited,,,,,,,,,DOPED_005241,,,Doped_Semiconductor,,,CdS_Se,CdS + Se @ 5.0e+16 cm^-3,,,Se,
Systematic_Generation,,1e+17,CdS:Se_1.0e+17,,Inherited,,,,,,,,,DOPED_005242,,,Doped_Semiconductor,,,CdS_Se,CdS + Se @ 1.0e+17 cm^-3,,,Se,
Systematic_Generation,,5e+17,CdS:Se_5.0e+17,,Inherited,,,,,,,,,DOPED_005243,,,Doped_Semiconductor,,,CdS_Se,CdS + Se @ 5.0e+17 cm^-3,,,Se,
Systematic_Generation,,1e+18,CdS:Se_1.0e+18,,Inherited,,,,,,,,,DOPED_005244,,,Doped_Semiconductor,,,CdS_Se,CdS + Se @ 1.0e+18 cm^-3,,,Se,
Systematic_Generation,,5e+18,CdS:Se_5.0e+18,,Inherited,,,,,,,,,DOPED_005245,,,Doped_Semiconductor,,,CdS_Se,CdS + Se @ 5.0e+18 cm^-3,,,Se,
Systematic_Generation,,1e+19,CdS:Se_1.0e+19,,Inherited,,,,,,,,,DOPED_005246,,,Doped_Semiconductor,,,CdS_Se,CdS + Se @ 1.0e+19 cm^-3,,,Se,
Systematic_Generation,,5e+19,CdS:Se_5.0e+19,,Inherited,,,,,,,,,DOPED_005247,,,Doped_Semiconductor,,,CdS_Se,CdS + Se @ 5.0e+19 cm^-3,,,Se,
Systematic_Generation,,1e+20,CdS:Se_1.0e+20,,Inherited,,,,,,,,,DOPED_005248,,,Doped_Semiconductor,,,CdS_Se,CdS + Se @ 1.0e+20 cm^-3,,,Se,
Systematic_Generation,,1e+21,CdS:Se_1.0e+21,,Inherited,,,,,,,,,DOPED_005249,,,Doped_Semiconductor,,,CdS_Se,CdS + Se @ 1.0e+21 cm^-3,,,Se,
Systematic_Generation,,1000000000000000.0,CdS:Te_1.0e+15,,Inherited,,,,,,,,,DOPED_005250,,,Doped_Semiconductor,,,CdS_Te,CdS + Te @ 1.0e+15 cm^-3,,,Te,
Systematic_Generation,,5000000000000000.0,CdS:Te_5.0e+15,,Inherited,,,,,,,,,DOPED_005251,,,Doped_Semiconductor,,,CdS_Te,CdS + Te @ 5.0e+15 cm^-3,,,Te,
Systematic_Generation,,1e+16,CdS:Te_1.0e+16,,Inherited,,,,,,,,,DOPED_005252,,,Doped_Semiconductor,,,CdS_Te,CdS + Te @ 1.0e+16 cm^-3,,,Te,
Systematic_Generation,,5e+16,CdS:Te_5.0e+16,,Inherited,,,,,,,,,DOPED_005253,,,Doped_Semiconductor,,,CdS_Te,CdS + Te @ 5.0e+16 cm^-3,,,Te,
Systematic_Generation,,1e+17,CdS:Te_1.0e+17,,Inherited,,,,,,,,,DOPED_005254,,,Doped_Semiconductor,,,CdS_Te,CdS + Te @ 1.0e+17 cm^-3,,,Te,
Systematic_Generation,,5e+17,CdS:Te_5.0e+17,,Inherited,,,,,,,,,DOPED_005255,,,Doped_Semiconductor,,,CdS_Te,CdS + Te @ 5.0e+17 cm^-3,,,Te,
Systematic_Generation,,1e+18,CdS:Te_1.0e+18,,Inherited,,,,,,,,,DOPED_005256,,,Doped_Semiconductor,,,CdS_Te,CdS + Te @ 1.0e+18 cm^-3,,,Te,
Systematic_Generation,,5e+18,CdS:Te_5.0e+18,,Inherited,,,,,,,,,DOPED_005257,,,Doped_Semiconductor,,,CdS_Te,CdS + Te @ 5.0e+18 cm^-3,,,Te,
Systematic_Generation,,1e+19,CdS:Te_1.0e+19,,Inherited,,,,,,,,,DOPED_005258,,,Doped_Semiconductor,,,CdS_Te,CdS + Te @ 1.0e+19 cm^-3,,,Te,
Systematic_Generation,,5e+19,CdS:Te_5.0e+19,,Inherited,,,,,,,,,DOPED_005259,,,Doped_Semiconductor,,,CdS_Te,CdS + Te @ 5.0e+19 cm^-3,,,Te,
Systematic_Generation,,1e+20,CdS:Te_1.0e+20,,Inherited,,,,,,,,,DOPED_005260,,,Doped_Semiconductor,,,CdS_Te,CdS + Te @ 1.0e+20 cm^-3,,,Te,
Systematic_Generation,,1e+21,CdS:Te_1.0e+21,,Inherited,,,,,,,,,DOPED_005261,,,Doped_Semiconductor,,,CdS_Te,CdS + Te @ 1.0e+21 cm^-3,,,Te,
Systematic_Generation,,1000000000000000.0,CdSe:B_1.0e+15,,Inherited,,,,,,,,,DOPED_005262,,,Doped_Semiconductor,,,CdSe_B,CdSe + B @ 1.0e+15 cm^-3,,,B,
Systematic_Generation,,5000000000000000.0,CdSe:B_5.0e+15,,Inherited,,,,,,,,,DOPED_005263,,,Doped_Semiconductor,,,CdSe_B,CdSe + B @ 5.0e+15 cm^-3,,,B,
Systematic_Generation,,1e+16,CdSe:B_1.0e+16,,Inherited,,,,,,,,,DOPED_005264,,,Doped_Semiconductor,,,CdSe_B,CdSe + B @ 1.0e+16 cm^-3,,,B,
Systematic_Generation,,5e+16,CdSe:B_5.0e+16,,Inherited,,,,,,,,,DOPED_005265,,,Doped_Semiconductor,,,CdSe_B,CdSe + B @ 5.0e+16 cm^-3,,,B,
Systematic_Generation,,1e+17,CdSe:B_1.0e+17,,Inherited,,,,,,,,,DOPED_005266,,,Doped_Semiconductor,,,CdSe_B,CdSe + B @ 1.0e+17 cm^-3,,,B,
Systematic_Generation,,5e+17,CdSe:B_5.0e+17,,Inherited,,,,,,,,,DOPED_005267,,,Doped_Semiconductor,,,CdSe_B,CdSe + B @ 5.0e+17 cm^-3,,,B,
Systematic_Generation,,1e+18,CdSe:B_1.0e+18,,Inherited,,,,,,,,,DOPED_005268,,,Doped_Semiconductor,,,CdSe_B,CdSe + B @ 1.0e+18 cm^-3,,,B,
Systematic_Generation,,5e+18,CdSe:B_5.0e+18,,Inherited,,,,,,,,,DOPED_005269,,,Doped_Semiconductor,,,CdSe_B,CdSe + B @ 5.0e+18 cm^-3,,,B,
Systematic_Generation,,1e+19,CdSe:B_1.0e+19,,Inherited,,,,,,,,,DOPED_005270,,,Doped_Semiconductor,,,CdSe_B,CdSe + B @ 1.0e+19 cm^-3,,,B,
Systematic_Generation,,5e+19,CdSe:B_5.0e+19,,Inherited,,,,,,,,,DOPED_005271,,,Doped_Semiconductor,,,CdSe_B,CdSe + B @ 5.0e+19 cm^-3,,,B,
Systematic_Generation,,1e+20,CdSe:B_1.0e+20,,Inherited,,,,,,,,,DOPED_005272,,,Doped_Semiconductor,,,CdSe_B,CdSe + B @ 1.0e+20 cm^-3,,,B,
Systematic_Generation,,1e+21,CdSe:B_1.0e+21,,Inherited,,,,,,,,,DOPED_005273,,,Doped_Semiconductor,,,CdSe_B,CdSe + B @ 1.0e+21 cm^-3,,,B,
Systematic_Generation,,1000000000000000.0,CdSe:P_1.0e+15,,Inherited,,,,,,,,,DOPED_005274,,,Doped_Semiconductor,,,CdSe_P,CdSe + P @ 1.0e+15 cm^-3,,,P,
Systematic_Generation,,5000000000000000.0,CdSe:P_5.0e+15,,Inherited,,,,,,,,,DOPED_005275,,,Doped_Semiconductor,,,CdSe_P,CdSe + P @ 5.0e+15 cm^-3,,,P,
Systematic_Generation,,1e+16,CdSe:P_1.0e+16,,Inherited,,,,,,,,,DOPED_005276,,,Doped_Semiconductor,,,CdSe_P,CdSe + P @ 1.0e+16 cm^-3,,,P,
Systematic_Generation,,5e+16,CdSe:P_5.0e+16,,Inherited,,,,,,,,,DOPED_005277,,,Doped_Semiconductor,,,CdSe_P,CdSe + P @ 5.0e+16 cm^-3,,,P,
Systematic_Generation,,1e+17,CdSe:P_1.0e+17,,Inherited,,,,,,,,,DOPED_005278,,,Doped_Semiconductor,,,CdSe_P,CdSe + P @ 1.0e+17 cm^-3,,,P,
Systematic_Generation,,5e+17,CdSe:P_5.0e+17,,Inherited,,,,,,,,,DOPED_005279,,,Doped_Semiconductor,,,CdSe_P,CdSe + P @ 5.0e+17 cm^-3,,,P,
Systematic_Generation,,1e+18,CdSe:P_1.0e+18,,Inherited,,,,,,,,,DOPED_005280,,,Doped_Semiconductor,,,CdSe_P,CdSe + P @ 1.0e+18 cm^-3,,,P,
Systematic_Generation,,5e+18,CdSe:P_5.0e+18,,Inherited,,,,,,,,,DOPED_005281,,,Doped_Semiconductor,,,CdSe_P,CdSe + P @ 5.0e+18 cm^-3,,,P,
Systematic_Generation,,1e+19,CdSe:P_1.0e+19,,Inherited,,,,,,,,,DOPED_005282,,,Doped_Semiconductor,,,CdSe_P,CdSe + P @ 1.0e+19 cm^-3,,,P,
Systematic_Generation,,5e+19,CdSe:P_5.0e+19,,Inherited,,,,,,,,,DOPED_005283,,,Doped_Semiconductor,,,CdSe_P,CdSe + P @ 5.0e+19 cm^-3,,,P,
Systematic_Generation,,1e+20,CdSe:P_1.0e+20,,Inherited,,,,,,,,,DOPED_005284,,,Doped_Semiconductor,,,CdSe_P,CdSe + P @ 1.0e+20 cm^-3,,,P,
Systematic_Generation,,1e+21,CdSe:P_1.0e+21,,Inherited,,,,,,,,,DOPED_005285,,,Doped_Semiconductor,,,CdSe_P,CdSe + P @ 1.0e+21 cm^-3,,,P,
Systematic_Generation,,1000000000000000.0,CdSe:As_1.0e+15,,Inherited,,,,,,,,,DOPED_005286,,,Doped_Semiconductor,,,CdSe_As,CdSe + As @ 1.0e+15 cm^-3,,,As,
Systematic_Generation,,5000000000000000.0,CdSe:As_5.0e+15,,Inherited,,,,,,,,,DOPED_005287,,,Doped_Semiconductor,,,CdSe_As,CdSe + As @ 5.0e+15 cm^-3,,,As,
Systematic_Generation,,1e+16,CdSe:As_1.0e+16,,Inherited,,,,,,,,,DOPED_005288,,,Doped_Semiconductor,,,CdSe_As,CdSe + As @ 1.0e+16 cm^-3,,,As,
Systematic_Generation,,5e+16,CdSe:As_5.0e+16,,Inherited,,,,,,,,,DOPED_005289,,,Doped_Semiconductor,,,CdSe_As,CdSe + As @ 5.0e+16 cm^-3,,,As,
Systematic_Generation,,1e+17,CdSe:As_1.0e+17,,Inherited,,,,,,,,,DOPED_005290,,,Doped_Semiconductor,,,CdSe_As,CdSe + As @ 1.0e+17 cm^-3,,,As,
Systematic_Generation,,5e+17,CdSe:As_5.0e+17,,Inherited,,,,,,,,,DOPED_005291,,,Doped_Semiconductor,,,CdSe_As,CdSe + As @ 5.0e+17 cm^-3,,,As,
Systematic_Generation,,1e+18,CdSe:As_1.0e+18,,Inherited,,,,,,,,,DOPED_005292,,,Doped_Semiconductor,,,CdSe_As,CdSe + As @ 1.0e+18 cm^-3,,,As,
Systematic_Generation,,5e+18,CdSe:As_5.0e+18,,Inherited,,,,,,,,,DOPED_005293,,,Doped_Semiconductor,,,CdSe_As,CdSe + As @ 5.0e+18 cm^-3,,,As,
Systematic_Generation,,1e+19,CdSe:As_1.0e+19,,Inherited,,,,,,,,,DOPED_005294,,,Doped_Semiconductor,,,CdSe_As,CdSe + As @ 1.0e+19 cm^-3,,,As,
Systematic_Generation,,5e+19,CdSe:As_5.0e+19,,Inherited,,,,,,,,,DOPED_005295,,,Doped_Semiconductor,,,CdSe_As,CdSe + As @ 5.0e+19 cm^-3,,,As,
Systematic_Generation,,1e+20,CdSe:As_1.0e+20,,Inherited,,,,,,,,,DOPED_005296,,,Doped_Semiconductor,,,CdSe_As,CdSe + As @ 1.0e+20 cm^-3,,,As,
Systematic_Generation,,1e+21,CdSe:As_1.0e+21,,Inherited,,,,,,,,,DOPED_005297,,,Doped_Semiconductor,,,CdSe_As,CdSe + As @ 1.0e+21 cm^-3,,,As,
Systematic_Generation,,1000000000000000.0,CdSe:Sb_1.0e+15,,Inherited,,,,,,,,,DOPED_005298,,,Doped_Semiconductor,,,CdSe_Sb,CdSe + Sb @ 1.0e+15 cm^-3,,,Sb,
Systematic_Generation,,5000000000000000.0,CdSe:Sb_5.0e+15,,Inherited,,,,,,,,,DOPED_005299,,,Doped_Semiconductor,,,CdSe_Sb,CdSe + Sb @ 5.0e+15 cm^-3,,,Sb,
Systematic_Generation,,1e+16,CdSe:Sb_1.0e+16,,Inherited,,,,,,,,,DOPED_005300,,,Doped_Semiconductor,,,CdSe_Sb,CdSe + Sb @ 1.0e+16 cm^-3,,,Sb,
Systematic_Generation,,5e+16,CdSe:Sb_5.0e+16,,Inherited,,,,,,,,,DOPED_005301,,,Doped_Semiconductor,,,CdSe_Sb,CdSe + Sb @ 5.0e+16 cm^-3,,,Sb,
Systematic_Generation,,1e+17,CdSe:Sb_1.0e+17,,Inherited,,,,,,,,,DOPED_005302,,,Doped_Semiconductor,,,CdSe_Sb,CdSe + Sb @ 1.0e+17 cm^-3,,,Sb,
Systematic_Generation,,5e+17,CdSe:Sb_5.0e+17,,Inherited,,,,,,,,,DOPED_005303,,,Doped_Semiconductor,,,CdSe_Sb,CdSe + Sb @ 5.0e+17 cm^-3,,,Sb,
Systematic_Generation,,1e+18,CdSe:Sb_1.0e+18,,Inherited,,,,,,,,,DOPED_005304,,,Doped_Semiconductor,,,CdSe_Sb,CdSe + Sb @ 1.0e+18 cm^-3,,,Sb,
Systematic_Generation,,5e+18,CdSe:Sb_5.0e+18,,Inherited,,,,,,,,,DOPED_005305,,,Doped_Semiconductor,,,CdSe_Sb,CdSe + Sb @ 5.0e+18 cm^-3,,,Sb,
Systematic_Generation,,1e+19,CdSe:Sb_1.0e+19,,Inherited,,,,,,,,,DOPED_005306,,,Doped_Semiconductor,,,CdSe_Sb,CdSe + Sb @ 1.0e+19 cm^-3,,,Sb,
Systematic_Generation,,5e+19,CdSe:Sb_5.0e+19,,Inherited,,,,,,,,,DOPED_005307,,,Doped_Semiconductor,,,CdSe_Sb,CdSe + Sb @ 5.0e+19 cm^-3,,,Sb,
Systematic_Generation,,1e+20,CdSe:Sb_1.0e+20,,Inherited,,,,,,,,,DOPED_005308,,,Doped_Semiconductor,,,CdSe_Sb,CdSe + Sb @ 1.0e+20 cm^-3,,,Sb,
Systematic_Generation,,1e+21,CdSe:Sb_1.0e+21,,Inherited,,,,,,,,,DOPED_005309,,,Doped_Semiconductor,,,CdSe_Sb,CdSe + Sb @ 1.0e+21 cm^-3,,,Sb,
Systematic_Generation,,1000000000000000.0,CdSe:N_1.0e+15,,Inherited,,,,,,,,,DOPED_005310,,,Doped_Semiconductor,,,CdSe_N,CdSe + N @ 1.0e+15 cm^-3,,,N,
Systematic_Generation,,5000000000000000.0,CdSe:N_5.0e+15,,Inherited,,,,,,,,,DOPED_005311,,,Doped_Semiconductor,,,CdSe_N,CdSe + N @ 5.0e+15 cm^-3,,,N,
Systematic_Generation,,1e+16,CdSe:N_1.0e+16,,Inherited,,,,,,,,,DOPED_005312,,,Doped_Semiconductor,,,CdSe_N,CdSe + N @ 1.0e+16 cm^-3,,,N,
Systematic_Generation,,5e+16,CdSe:N_5.0e+16,,Inherited,,,,,,,,,DOPED_005313,,,Doped_Semiconductor,,,CdSe_N,CdSe + N @ 5.0e+16 cm^-3,,,N,
Systematic_Generation,,1e+17,CdSe:N_1.0e+17,,Inherited,,,,,,,,,DOPED_005314,,,Doped_Semiconductor,,,CdSe_N,CdSe + N @ 1.0e+17 cm^-3,,,N,
Systematic_Generation,,5e+17,CdSe:N_5.0e+17,,Inherited,,,,,,,,,DOPED_005315,,,Doped_Semiconductor,,,CdSe_N,CdSe + N @ 5.0e+17 cm^-3,,,N,
Systematic_Generation,,1e+18,CdSe:N_1.0e+18,,Inherited,,,,,,,,,DOPED_005316,,,Doped_Semiconductor,,,CdSe_N,CdSe + N @ 1.0e+18 cm^-3,,,N,
Systematic_Generation,,5e+18,CdSe:N_5.0e+18,,Inherited,,,,,,,,,DOPED_005317,,,Doped_Semiconductor,,,CdSe_N,CdSe + N @ 5.0e+18 cm^-3,,,N,
Systematic_Generation,,1e+19,CdSe:N_1.0e+19,,Inherited,,,,,,,,,DOPED_005318,,,Doped_Semiconductor,,,CdSe_N,CdSe + N @ 1.0e+19 cm^-3,,,N,
Systematic_Generation,,5e+19,CdSe:N_5.0e+19,,Inherited,,,,,,,,,DOPED_005319,,,Doped_Semiconductor,,,CdSe_N,CdSe + N @ 5.0e+19 cm^-3,,,N,
Systematic_Generation,,1e+20,CdSe:N_1.0e+20,,Inherited,,,,,,,,,DOPED_005320,,,Doped_Semiconductor,,,CdSe_N,CdSe + N @ 1.0e+20 cm^-3,,,N,
Systematic_Generation,,1e+21,CdSe:N_1.0e+21,,Inherited,,,,,,,,,DOPED_005321,,,Doped_Semiconductor,,,CdSe_N,CdSe + N @ 1.0e+21 cm^-3,,,N,
Systematic_Generation,,1000000000000000.0,CdSe:Al_1.0e+15,,Inherited,,,,,,,,,DOPED_005322,,,Doped_Semiconductor,,,CdSe_Al,CdSe + Al @ 1.0e+15 cm^-3,,,Al,
Systematic_Generation,,5000000000000000.0,CdSe:Al_5.0e+15,,Inherited,,,,,,,,,DOPED_005323,,,Doped_Semiconductor,,,CdSe_Al,CdSe + Al @ 5.0e+15 cm^-3,,,Al,
Systematic_Generation,,1e+16,CdSe:Al_1.0e+16,,Inherited,,,,,,,,,DOPED_005324,,,Doped_Semiconductor,,,CdSe_Al,CdSe + Al @ 1.0e+16 cm^-3,,,Al,
Systematic_Generation,,5e+16,CdSe:Al_5.0e+16,,Inherited,,,,,,,,,DOPED_005325,,,Doped_Semiconductor,,,CdSe_Al,CdSe + Al @ 5.0e+16 cm^-3,,,Al,
Systematic_Generation,,1e+17,CdSe:Al_1.0e+17,,Inherited,,,,,,,,,DOPED_005326,,,Doped_Semiconductor,,,CdSe_Al,CdSe + Al @ 1.0e+17 cm^-3,,,Al,
Systematic_Generation,,5e+17,CdSe:Al_5.0e+17,,Inherited,,,,,,,,,DOPED_005327,,,Doped_Semiconductor,,,CdSe_Al,CdSe + Al @ 5.0e+17 cm^-3,,,Al,
Systematic_Generation,,1e+18,CdSe:Al_1.0e+18,,Inherited,,,,,,,,,DOPED_005328,,,Doped_Semiconductor,,,CdSe_Al,CdSe + Al @ 1.0e+18 cm^-3,,,Al,
Systematic_Generation,,5e+18,CdSe:Al_5.0e+18,,Inherited,,,,,,,,,DOPED_005329,,,Doped_Semiconductor,,,CdSe_Al,CdSe + Al @ 5.0e+18 cm^-3,,,Al,
Systematic_Generation,,1e+19,CdSe:Al_1.0e+19,,Inherited,,,,,,,,,DOPED_005330,,,Doped_Semiconductor,,,CdSe_Al,CdSe + Al @ 1.0e+19 cm^-3,,,Al,
Systematic_Generation,,5e+19,CdSe:Al_5.0e+19,,Inherited,,,,,,,,,DOPED_005331,,,Doped_Semiconductor,,,CdSe_Al,CdSe + Al @ 5.0e+19 cm^-3,,,Al,
Systematic_Generation,,1e+20,CdSe:Al_1.0e+20,,Inherited,,,,,,,,,DOPED_005332,,,Doped_Semiconductor,,,CdSe_Al,CdSe + Al @ 1.0e+20 cm^-3,,,Al,
Systematic_Generation,,1e+21,CdSe:Al_1.0e+21,,Inherited,,,,,,,,,DOPED_005333,,,Doped_Semiconductor,,,CdSe_Al,CdSe + Al @ 1.0e+21 cm^-3,,,Al,
Systematic_Generation,,1000000000000000.0,CdSe:Ga_1.0e+15,,Inherited,,,,,,,,,DOPED_005334,,,Doped_Semiconductor,,,CdSe_Ga,CdSe + Ga @ 1.0e+15 cm^-3,,,Ga,
Systematic_Generation,,5000000000000000.0,CdSe:Ga_5.0e+15,,Inherited,,,,,,,,,DOPED_005335,,,Doped_Semiconductor,,,CdSe_Ga,CdSe + Ga @ 5.0e+15 cm^-3,,,Ga,
Systematic_Generation,,1e+16,CdSe:Ga_1.0e+16,,Inherited,,,,,,,,,DOPED_005336,,,Doped_Semiconductor,,,CdSe_Ga,CdSe + Ga @ 1.0e+16 cm^-3,,,Ga,
Systematic_Generation,,5e+16,CdSe:Ga_5.0e+16,,Inherited,,,,,,,,,DOPED_005337,,,Doped_Semiconductor,,,CdSe_Ga,CdSe + Ga @ 5.0e+16 cm^-3,,,Ga,
Systematic_Generation,,1e+17,CdSe:Ga_1.0e+17,,Inherited,,,,,,,,,DOPED_005338,,,Doped_Semiconductor,,,CdSe_Ga,CdSe + Ga @ 1.0e+17 cm^-3,,,Ga,
Systematic_Generation,,5e+17,CdSe:Ga_5.0e+17,,Inherited,,,,,,,,,DOPED_005339,,,Doped_Semiconductor,,,CdSe_Ga,CdSe + Ga @ 5.0e+17 cm^-3,,,Ga,
Systematic_Generation,,1e+18,CdSe:Ga_1.0e+18,,Inherited,,,,,,,,,DOPED_005340,,,Doped_Semiconductor,,,CdSe_Ga,CdSe + Ga @ 1.0e+18 cm^-3,,,Ga,
Systematic_Generation,,5e+18,CdSe:Ga_5.0e+18,,Inherited,,,,,,,,,DOPED_005341,,,Doped_Semiconductor,,,CdSe_Ga,CdSe + Ga @ 5.0e+18 cm^-3,,,Ga,
Systematic_Generation,,1e+19,CdSe:Ga_1.0e+19,,Inherited,,,,,,,,,DOPED_005342,,,Doped_Semiconductor,,,CdSe_Ga,CdSe + Ga @ 1.0e+19 cm^-3,,,Ga,
Systematic_Generation,,5e+19,CdSe:Ga_5.0e+19,,Inherited,,,,,,,,,DOPED_005343,,,Doped_Semiconductor,,,CdSe_Ga,CdSe + Ga @ 5.0e+19 cm^-3,,,Ga,
Systematic_Generation,,1e+20,CdSe:Ga_1.0e+20,,Inherited,,,,,,,,,DOPED_005344,,,Doped_Semiconductor,,,CdSe_Ga,CdSe + Ga @ 1.0e+20 cm^-3,,,Ga,
Systematic_Generation,,1e+21,CdSe:Ga_1.0e+21,,Inherited,,,,,,,,,DOPED_005345,,,Doped_Semiconductor,,,CdSe_Ga,CdSe + Ga @ 1.0e+21 cm^-3,,,Ga,
Systematic_Generation,,1000000000000000.0,CdSe:In_1.0e+15,,Inherited,,,,,,,,,DOPED_005346,,,Doped_Semiconductor,,,CdSe_In,CdSe + In @ 1.0e+15 cm^-3,,,In,
Systematic_Generation,,5000000000000000.0,CdSe:In_5.0e+15,,Inherited,,,,,,,,,DOPED_005347,,,Doped_Semiconductor,,,CdSe_In,CdSe + In @ 5.0e+15 cm^-3,,,In,
Systematic_Generation,,1e+16,CdSe:In_1.0e+16,,Inherited,,,,,,,,,DOPED_005348,,,Doped_Semiconductor,,,CdSe_In,CdSe + In @ 1.0e+16 cm^-3,,,In,
Systematic_Generation,,5e+16,CdSe:In_5.0e+16,,Inherited,,,,,,,,,DOPED_005349,,,Doped_Semiconductor,,,CdSe_In,CdSe + In @ 5.0e+16 cm^-3,,,In,
Systematic_Generation,,1e+17,CdSe:In_1.0e+17,,Inherited,,,,,,,,,DOPED_005350,,,Doped_Semiconductor,,,CdSe_In,CdSe + In @ 1.0e+17 cm^-3,,,In,
Systematic_Generation,,5e+17,CdSe:In_5.0e+17,,Inherited,,,,,,,,,DOPED_005351,,,Doped_Semiconductor,,,CdSe_In,CdSe + In @ 5.0e+17 cm^-3,,,In,
Systematic_Generation,,1e+18,CdSe:In_1.0e+18,,Inherited,,,,,,,,,DOPED_005352,,,Doped_Semiconductor,,,CdSe_In,CdSe + In @ 1.0e+18 cm^-3,,,In,