source,n_elements,doping_concentration,name,termination,space_group,doping_level,volume_fraction,weight_percent,lattice_c,temperature,reinforcement,matrix,layers,material_id,molecular_weight,deposition_method,type,lattice_b,pdi,formula,composition,lattice_a,thickness_nm,dopant,substrate
Systematic_Generation,,,Ba2VMnO6,,P21/n,,,,7.699,,,,,DPERO_001542,,,Double_Perovskite,7.515,,Ba2VMnO6,"Ba:2, V:1, Mn:1, O:6",8.33,,,
Systematic_Generation,,,Ba2VFeO6,,R-3,,,,8.391,,,,,DPERO_001543,,,Double_Perovskite,7.963,,Ba2VFeO6,"Ba:2, V:1, Fe:1, O:6",7.695,,,
Systematic_Generation,,,Ba2VCoO6,,P21/n,,,,7.822,,,,,DPERO_001544,,,Double_Perovskite,7.878,,Ba2VCoO6,"Ba:2, V:1, Co:1, O:6",8.493,,,
Systematic_Generation,,,Ba2NbWO6,,Fm-3m,,,,7.97,,,,,DPERO_001545,,,Double_Perovskite,7.567,,Ba2NbWO6,"Ba:2, Nb:1, W:1, O:6",8.162,,,
Systematic_Generation,,,Ba2NbMnO6,,Fm-3m,,,,7.536,,,,,DPERO_001546,,,Double_Perovskite,7.649,,Ba2NbMnO6,"Ba:2, Nb:1, Mn:1, O:6",7.769,,,
Systematic_Generation,,,Ba2NbFeO6,,P21/n,,,,8.411,,,,,DPERO_001547,,,Double_Perovskite,8.426,,Ba2NbFeO6,"Ba:2, Nb:1, Fe:1, O:6",7.776,,,
Systematic_Generation,,,Ba2NbCoO6,,R-3,,,,8.305,,,,,DPERO_001548,,,Double_Perovskite,8.151,,Ba2NbCoO6,"Ba:2, Nb:1, Co:1, O:6",8.209,,,
Systematic_Generation,,,Ba2TaWO6,,P21/n,,,,8.322,,,,,DPERO_001549,,,Double_Perovskite,7.802,,Ba2TaWO6,"Ba:2, Ta:1, W:1, O:6",7.878,,,
Systematic_Generation,,,Ba2TaMnO6,,Fm-3m,,,,8.092,,,,,DPERO_001550,,,Double_Perovskite,8.19,,Ba2TaMnO6,"Ba:2, Ta:1, Mn:1, O:6",7.728,,,
Systematic_Generation,,,Ba2TaFeO6,,R-3,,,,8.348,,,,,DPERO_001551,,,Double_Perovskite,7.744,,Ba2TaFeO6,"Ba:2, Ta:1, Fe:1, O:6",8.084,,,
Systematic_Generation,,,Ba2TaCoO6,,R-3,,,,8.127,,,,,DPERO_001552,,,Double_Perovskite,8.001,,Ba2TaCoO6,"Ba:2, Ta:1, Co:1, O:6",7.719,,,
Systematic_Generation,,,Ba2CrWO6,,P21/n,,,,8.244,,,,,DPERO_001553,,,Double_Perovskite,7.558,,Ba2CrWO6,"Ba:2, Cr:1, W:1, O:6",7.796,,,
Systematic_Generation,,,Ba2CrMnO6,,P21/n,,,,7.787,,,,,DPERO_001554,,,Double_Perovskite,8.488,,Ba2CrMnO6,"Ba:2, Cr:1, Mn:1, O:6",7.626,,,
Systematic_Generation,,,Ba2CrFeO6,,P21/n,,,,7.795,,,,,DPERO_001555,,,Double_Perovskite,8.083,,Ba2CrFeO6,"Ba:2, Cr:1, Fe:1, O:6",8.159,,,
Systematic_Generation,,,Ba2CrCoO6,,R-3,,,,7.6,,,,,DPERO_001556,,,Double_Perovskite,7.602,,Ba2CrCoO6,"Ba:2, Cr:1, Co:1, O:6",8.285,,,
Systematic_Generation,,,Ba2MoWO6,,Fm-3m,,,,8.368,,,,,DPERO_001557,,,Double_Perovskite,7.567,,Ba2MoWO6,"Ba:2, Mo:1, W:1, O:6",8.089,,,
Systematic_Generation,,,Ba2MoMnO6,,P21/n,,,,8.434,,,,,DPERO_001558,,,Double_Perovskite,7.616,,Ba2MoMnO6,"Ba:2, Mo:1, Mn:1, O:6",7.662,,,
Systematic_Generation,,,Ba2MoFeO6,,Fm-3m,,,,7.614,,,,,DPERO_001559,,,Double_Perovskite,8.02,,Ba2MoFeO6,"Ba:2, Mo:1, Fe:1, O:6",8.256,,,
Systematic_Generation,,,Ba2MoCoO6,,P21/n,,,,8.179,,,,,DPERO_001560,,,Double_Perovskite,8.152,,Ba2MoCoO6,"Ba:2, Mo:1, Co:1, O:6",7.508,,,
Systematic_Generation,,,Pb2TiWO6,,Fm-3m,,,,8.364,,,,,DPERO_001561,,,Double_Perovskite,7.741,,Pb2TiWO6,"Pb:2, Ti:1, W:1, O:6",7.789,,,
Systematic_Generation,,,Pb2TiMnO6,,R-3,,,,8.379,,,,,DPERO_001562,,,Double_Perovskite,7.569,,Pb2TiMnO6,"Pb:2, Ti:1, Mn:1, O:6",7.766,,,
Systematic_Generation,,,Pb2TiFeO6,,R-3,,,,8.0,,,,,DPERO_001563,,,Double_Perovskite,7.8,,Pb2TiFeO6,"Pb:2, Ti:1, Fe:1, O:6",8.437,,,
Systematic_Generation,,,Pb2TiCoO6,,Fm-3m,,,,7.935,,,,,DPERO_001564,,,Double_Perovskite,8.012,,Pb2TiCoO6,"Pb:2, Ti:1, Co:1, O:6",8.44,,,
Systematic_Generation,,,Pb2ZrWO6,,R-3,,,,7.595,,,,,DPERO_001565,,,Double_Perovskite,8.381,,Pb2ZrWO6,"Pb:2, Zr:1, W:1, O:6",7.899,,,
Systematic_Generation,,,Pb2ZrMnO6,,Fm-3m,,,,7.714,,,,,DPERO_001566,,,Double_Perovskite,8.484,,Pb2ZrMnO6,"Pb:2, Zr:1, Mn:1, O:6",7.512,,,
Systematic_Generation,,,Pb2ZrFeO6,,Fm-3m,,,,7.607,,,,,DPERO_001567,,,Double_Perovskite,7.755,,Pb2ZrFeO6,"Pb:2, Zr:1, Fe:1, O:6",7.616,,,
Systematic_Generation,,,Pb2ZrCoO6,,Fm-3m,,,,8.246,,,,,DPERO_001568,,,Double_Perovskite,8.087,,Pb2ZrCoO6,"Pb:2, Zr:1, Co:1, O:6",8.245,,,
Systematic_Generation,,,Pb2HfWO6,,P21/n,,,,8.038,,,,,DPERO_001569,,,Double_Perovskite,7.591,,Pb2HfWO6,"Pb:2, Hf:1, W:1, O:6",7.516,,,
Systematic_Generation,,,Pb2HfMnO6,,Fm-3m,,,,7.718,,,,,DPERO_001570,,,Double_Perovskite,7.713,,Pb2HfMnO6,"Pb:2, Hf:1, Mn:1, O:6",7.823,,,
Systematic_Generation,,,Pb2HfFeO6,,P21/n,,,,8.014,,,,,DPERO_001571,,,Double_Perovskite,7.988,,Pb2HfFeO6,"Pb:2, Hf:1, Fe:1, O:6",7.553,,,
Systematic_Generation,,,Pb2HfCoO6,,R-3,,,,8.433,,,,,DPERO_001572,,,Double_Perovskite,8.188,,Pb2HfCoO6,"Pb:2, Hf:1, Co:1, O:6",8.053,,,
Systematic_Generation,,,Pb2VWO6,,R-3,,,,8.258,,,,,DPERO_001573,,,Double_Perovskite,8.422,,Pb2VWO6,"Pb:2, V:1, W:1, O:6",8.393,,,
Systematic_Generation,,,Pb2VMnO6,,P21/n,,,,7.8,,,,,DPERO_001574,,,Double_Perovskite,7.817,,Pb2VMnO6,"Pb:2, V:1, Mn:1, O:6",7.601,,,
Systematic_Generation,,,Pb2VFeO6,,Fm-3m,,,,8.494,,,,,DPERO_001575,,,Double_Perovskite,8.331,,Pb2VFeO6,"Pb:2, V:1, Fe:1, O:6",8.378,,,
Systematic_Generation,,,Pb2VCoO6,,P21/n,,,,7.893,,,,,DPERO_001576,,,Double_Perovskite,7.643,,Pb2VCoO6,"Pb:2, V:1, Co:1, O:6",7.844,,,
Systematic_Generation,,,Pb2NbWO6,,Fm-3m,,,,8.192,,,,,DPERO_001577,,,Double_Perovskite,8.316,,Pb2NbWO6,"Pb:2, Nb:1, W:1, O:6",7.6,,,
Systematic_Generation,,,Pb2NbMnO6,,Fm-3m,,,,7.664,,,,,DPERO_001578,,,Double_Perovskite,7.815,,Pb2NbMnO6,"Pb:2, Nb:1, Mn:1, O:6",8.287,,,
Systematic_Generation,,,Pb2NbFeO6,,R-3,,,,7.701,,,,,DPERO_001579,,,Double_Perovskite,8.394,,Pb2NbFeO6,"Pb:2, Nb:1, Fe:1, O:6",7.839,,,
Systematic_Generation,,,Pb2NbCoO6,,Fm-3m,,,,7.588,,,,,DPERO_001580,,,Double_Perovskite,7.867,,Pb2NbCoO6,"Pb:2, Nb:1, Co:1, O:6",8.314,,,
Systematic_Generation,,,Pb2TaWO6,,R-3,,,,7.779,,,,,DPERO_001581,,,Double_Perovskite,8.044,,Pb2TaWO6,"Pb:2, Ta:1, W:1, O:6",7.801,,,
Systematic_Generation,,,Pb2TaMnO6,,Fm-3m,,,,7.783,,,,,DPERO_001582,,,Double_Perovskite,8.223,,Pb2TaMnO6,"Pb:2, Ta:1, Mn:1, O:6",7.783,,,
Systematic_Generation,,,Pb2TaFeO6,,R-3,,,,8.271,,,,,DPERO_001583,,,Double_Perovskite,7.558,,Pb2TaFeO6,"Pb:2, Ta:1, Fe:1, O:6",8.464,,,
Systematic_Generation,,,Pb2TaCoO6,,P21/n,,,,8.146,,,,,DPERO_001584,,,Double_Perovskite,8.216,,Pb2TaCoO6,"Pb:2, Ta:1, Co:1, O:6",8.047,,,
Systematic_Generation,,,Pb2CrWO6,,P21/n,,,,7.652,,,,,DPERO_001585,,,Double_Perovskite,7.755,,Pb2CrWO6,"Pb:2, Cr:1, W:1, O:6",7.958,,,
Systematic_Generation,,,Pb2CrMnO6,,P21/n,,,,7.621,,,,,DPERO_001586,,,Double_Perovskite,7.947,,Pb2CrMnO6,"Pb:2, Cr:1, Mn:1, O:6",8.041,,,
Systematic_Generation,,,Pb2CrFeO6,,P21/n,,,,8.487,,,,,DPERO_001587,,,Double_Perovskite,7.982,,Pb2CrFeO6,"Pb:2, Cr:1, Fe:1, O:6",8.301,,,
Systematic_Generation,,,Pb2CrCoO6,,Fm-3m,,,,7.974,,,,,DPERO_001588,,,Double_Perovskite,8.169,,Pb2CrCoO6,"Pb:2, Cr:1, Co:1, O:6",7.936,,,
Systematic_Generation,,,Pb2MoWO6,,P21/n,,,,7.625,,,,,DPERO_001589,,,Double_Perovskite,8.365,,Pb2MoWO6,"Pb:2, Mo:1, W:1, O:6",8.117,,,
Systematic_Generation,,,Pb2MoMnO6,,R-3,,,,8.39,,,,,DPERO_001590,,,Double_Perovskite,7.942,,Pb2MoMnO6,"Pb:2, Mo:1, Mn:1, O:6",7.635,,,
Systematic_Generation,,,Pb2MoFeO6,,Fm-3m,,,,7.746,,,,,DPERO_001591,,,Double_Perovskite,8.47,,Pb2MoFeO6,"Pb:2, Mo:1, Fe:1, O:6",8.5,,,
Systematic_Generation,,,Pb2MoCoO6,,R-3,,,,8.494,,,,,DPERO_001592,,,Double_Perovskite,8.285,,Pb2MoCoO6,"Pb:2, Mo:1, Co:1, O:6",8.005,,,
Systematic_Generation,,,La2TiWO6,,P21/n,,,,7.782,,,,,DPERO_001593,,,Double_Perovskite,8.402,,La2TiWO6,"La:2, Ti:1, W:1, O:6",7.853,,,
Systematic_Generation,,,La2TiMnO6,,R-3,,,,8.317,,,,,DPERO_001594,,,Double_Perovskite,8.485,,La2TiMnO6,"La:2, Ti:1, Mn:1, O:6",8.256,,,
Systematic_Generation,,,La2TiFeO6,,Fm-3m,,,,7.58,,,,,DPERO_001595,,,Double_Perovskite,8.443,,La2TiFeO6,"La:2, Ti:1, Fe:1, O:6",7.67,,,
Systematic_Generation,,,La2TiCoO6,,P21/n,,,,8.102,,,,,DPERO_001596,,,Double_Perovskite,8.327,,La2TiCoO6,"La:2, Ti:1, Co:1, O:6",8.143,,,
Systematic_Generation,,,La2ZrWO6,,Fm-3m,,,,8.186,,,,,DPERO_001597,,,Double_Perovskite,7.927,,La2ZrWO6,"La:2, Zr:1, W:1, O:6",8.061,,,
Systematic_Generation,,,La2ZrMnO6,,Fm-3m,,,,8.124,,,,,DPERO_001598,,,Double_Perovskite,7.928,,La2ZrMnO6,"La:2, Zr:1, Mn:1, O:6",7.5,,,
Systematic_Generation,,,La2ZrFeO6,,R-3,,,,8.005,,,,,DPERO_001599,,,Double_Perovskite,7.511,,La2ZrFeO6,"La:2, Zr:1, Fe:1, O:6",8.232,,,
Systematic_Generation,,,La2ZrCoO6,,Fm-3m,,,,7.851,,,,,DPERO_001600,,,Double_Perovskite,7.86,,La2ZrCoO6,"La:2, Zr:1, Co:1, O:6",7.724,,,
Systematic_Generation,,,La2HfWO6,,R-3,,,,7.999,,,,,DPERO_001601,,,Double_Perovskite,7.928,,La2HfWO6,"La:2, Hf:1, W:1, O:6",8.289,,,
Systematic_Generation,,,La2HfMnO6,,Fm-3m,,,,8.433,,,,,DPERO_001602,,,Double_Perovskite,8.026,,La2HfMnO6,"La:2, Hf:1, Mn:1, O:6",7.505,,,
Systematic_Generation,,,La2HfFeO6,,P21/n,,,,8.36,,,,,DPERO_001603,,,Double_Perovskite,7.885,,La2HfFeO6,"La:2, Hf:1, Fe:1, O:6",7.632,,,
Systematic_Generation,,,La2HfCoO6,,Fm-3m,,,,8.244,,,,,DPERO_001604,,,Double_Perovskite,7.82,,La2HfCoO6,"La:2, Hf:1, Co:1, O:6",8.076,,,
Systematic_Generation,,,La2VWO6,,Fm-3m,,,,7.662,,,,,DPERO_001605,,,Double_Perovskite,7.502,,La2VWO6,"La:2, V:1, W:1, O:6",7.992,,,
Systematic_Generation,,,La2VMnO6,,Fm-3m,,,,8.119,,,,,DPERO_001606,,,Double_Perovskite,8.276,,La2VMnO6,"La:2, V:1, Mn:1, O:6",8.114,,,
Systematic_Generation,,,La2VFeO6,,P21/n,,,,7.804,,,,,DPERO_001607,,,Double_Perovskite,8.278,,La2VFeO6,"La:2, V:1, Fe:1, O:6",8.369,,,
Systematic_Generation,,,La2VCoO6,,P21/n,,,,7.78,,,,,DPERO_001608,,,Double_Perovskite,8.259,,La2VCoO6,"La:2, V:1, Co:1, O:6",7.692,,,
Systematic_Generation,,,La2NbWO6,,P21/n,,,,8.124,,,,,DPERO_001609,,,Double_Perovskite,8.249,,La2NbWO6,"La:2, Nb:1, W:1, O:6",8.263,,,
Systematic_Generation,,,La2NbMnO6,,Fm-3m,,,,7.899,,,,,DPERO_001610,,,Double_Perovskite,8.464,,La2NbMnO6,"La:2, Nb:1, Mn:1, O:6",7.654,,,
Systematic_Generation,,,La2NbFeO6,,P21/n,,,,8.336,,,,,DPERO_001611,,,Double_Perovskite,7.547,,La2NbFeO6,"La:2, Nb:1, Fe:1, O:6",8.423,,,
Systematic_Generation,,,La2NbCoO6,,P21/n,,,,7.647,,,,,DPERO_001612,,,Double_Perovskite,8.302,,La2NbCoO6,"La:2, Nb:1, Co:1, O:6",7.874,,,
Systematic_Generation,,,La2TaWO6,,Fm-3m,,,,7.932,,,,,DPERO_001613,,,Double_Perovskite,7.71,,La2TaWO6,"La:2, Ta:1, W:1, O:6",8.12,,,
Systematic_Generation,,,La2TaMnO6,,R-3,,,,8.17,,,,,DPERO_001614,,,Double_Perovskite,7.974,,La2TaMnO6,"La:2, Ta:1, Mn:1, O:6",7.775,,,
Systematic_Generation,,,La2TaFeO6,,Fm-3m,,,,8.44,,,,,DPERO_001615,,,Double_Perovskite,7.556,,La2TaFeO6,"La:2, Ta:1, Fe:1, O:6",7.941,,,
Systematic_Generation,,,La2TaCoO6,,R-3,,,,8.218,,,,,DPERO_001616,,,Double_Perovskite,7.588,,La2TaCoO6,"La:2, Ta:1, Co:1, O:6",7.543,,,
Systematic_Generation,,,La2CrWO6,,R-3,,,,8.077,,,,,DPERO_001617,,,Double_Perovskite,8.051,,La2CrWO6,"La:2, Cr:1, W:1, O:6",7.775,,,
Systematic_Generation,,,La2CrMnO6,,R-3,,,,7.54,,,,,DPERO_001618,,,Double_Perovskite,7.538,,La2CrMnO6,"La:2, Cr:1, Mn:1, O:6",7.913,,,
Systematic_Generation,,,La2CrFeO6,,P21/n,,,,7.576,,,,,DPERO_001619,,,Double_Perovskite,8.091,,La2CrFeO6,"La:2, Cr:1, Fe:1, O:6",8.412,,,
Systematic_Generation,,,La2CrCoO6,,Fm-3m,,,,8.128,,,,,DPERO_001620,,,Double_Perovskite,8.45,,La2CrCoO6,"La:2, Cr:1, Co:1, O:6",7.555,,,
Systematic_Generation,,,La2MoWO6,,R-3,,,,8.175,,,,,DPERO_001621,,,Double_Perovskite,8.349,,La2MoWO6,"La:2, Mo:1, W:1, O:6",8.106,,,
Systematic_Generation,,,La2MoMnO6,,Fm-3m,,,,7.982,,,,,DPERO_001622,,,Double_Perovskite,7.536,,La2MoMnO6,"La:2, Mo:1, Mn:1, O:6",7.591,,,
Systematic_Generation,,,La2MoFeO6,,P21/n,,,,8.001,,,,,DPERO_001623,,,Double_Perovskite,7.524,,La2MoFeO6,"La:2, Mo:1, Fe:1, O:6",8.014,,,
Systematic_Generation,,,La2MoCoO6,,P21/n,,,,8.217,,,,,DPERO_001624,,,Double_Perovskite,8.428,,La2MoCoO6,"La:2, Mo:1, Co:1, O:6",7.792,,,
Systematic_Generation,,,Pr2TiWO6,,Fm-3m,,,,8.406,,,,,DPERO_001625,,,Double_Perovskite,8.36,,Pr2TiWO6,"Pr:2, Ti:1, W:1, O:6",8.331,,,
Systematic_Generation,,,Pr2TiMnO6,,Fm-3m,,,,8.288,,,,,DPERO_001626,,,Double_Perovskite,7.727,,Pr2TiMnO6,"Pr:2, Ti:1, Mn:1, O:6",7.588,,,
Systematic_Generation,,,Pr2TiFeO6,,P21/n,,,,7.592,,,,,DPERO_001627,,,Double_Perovskite,8.276,,Pr2TiFeO6,"Pr:2, Ti:1, Fe:1, O:6",7.871,,,
Systematic_Generation,,,Pr2TiCoO6,,Fm-3m,,,,7.57,,,,,DPERO_001628,,,Double_Perovskite,7.53,,Pr2TiCoO6,"Pr:2, Ti:1, Co:1, O:6",8.203,,,
Systematic_Generation,,,Pr2ZrWO6,,Fm-3m,,,,7.904,,,,,DPERO_001629,,,Double_Perovskite,8.369,,Pr2ZrWO6,"Pr:2, Zr:1, W:1, O:6",8.265,,,
Systematic_Generation,,,Pr2ZrMnO6,,P21/n,,,,7.887,,,,,DPERO_001630,,,Double_Perovskite,7.503,,Pr2ZrMnO6,"Pr:2, Zr:1, Mn:1, O:6",7.601,,,
Systematic_Generation,,,Pr2ZrFeO6,,Fm-3m,,,,7.548,,,,,DPERO_001631,,,Double_Perovskite,7.571,,Pr2ZrFeO6,"Pr:2, Zr:1, Fe:1, O:6",7.638,,,
Systematic_Generation,,,Pr2ZrCoO6,,P21/n,,,,7.908,,,,,DPERO_001632,,,Double_Perovskite,7.557,,Pr2ZrCoO6,"Pr:2, Zr:1, Co:1, O:6",7.561,,,
Systematic_Generation,,,Pr2HfWO6,,R-3,,,,7.555,,,,,DPERO_001633,,,Double_Perovskite,7.979,,Pr2HfWO6,"Pr:2, Hf:1, W:1, O:6",8.317,,,
Systematic_Generation,,,Pr2HfMnO6,,R-3,,,,8.126,,,,,DPERO_001634,,,Double_Perovskite,8.409,,Pr2HfMnO6,"Pr:2, Hf:1, Mn:1, O:6",8.29,,,
Systematic_Generation,,,Pr2HfFeO6,,R-3,,,,8.376,,,,,DPERO_001635,,,Double_Perovskite,7.583,,Pr2HfFeO6,"Pr:2, Hf:1, Fe:1, O:6",8.208,,,
Systematic_Generation,,,Pr2HfCoO6,,P21/n,,,,7.884,,,,,DPERO_001636,,,Double_Perovskite,7.708,,Pr2HfCoO6,"Pr:2, Hf:1, Co:1, O:6",7.596,,,
Systematic_Generation,,,Pr2VWO6,,R-3,,,,8.292,,,,,DPERO_001637,,,Double_Perovskite,7.649,,Pr2VWO6,"Pr:2, V:1, W:1, O:6",8.301,,,
Systematic_Generation,,,Pr2VMnO6,,P21/n,,,,8.385,,,,,DPERO_001638,,,Double_Perovskite,7.817,,Pr2VMnO6,"Pr:2, V:1, Mn:1, O:6",7.691,,,
Systematic_Generation,,,Pr2VFeO6,,P21/n,,,,8.222,,,,,DPERO_001639,,,Double_Perovskite,8.313,,Pr2VFeO6,"Pr:2, V:1, Fe:1, O:6",7.96,,,
Systematic_Generation,,,Pr2VCoO6,,Fm-3m,,,,7.901,,,,,DPERO_001640,,,Double_Perovskite,8.107,,Pr2VCoO6,"Pr:2, V:1, Co:1, O:6",7.89,,,
Systematic_Generation,,,Pr2NbWO6,,Fm-3m,,,,8.155,,,,,DPERO_001641,,,Double_Perovskite,8.098,,Pr2NbWO6,"Pr:2, Nb:1, W:1, O:6",8.051,,,
Systematic_Generation,,,Pr2NbMnO6,,Fm-3m,,,,8.053,,,,,DPERO_001642,,,Double_Perovskite,8.106,,Pr2NbMnO6,"Pr:2, Nb:1, Mn:1, O:6",7.564,,,
Systematic_Generation,,,Pr2NbFeO6,,Fm-3m,,,,7.554,,,,,DPERO_001643,,,Double_Perovskite,8.282,,Pr2NbFeO6,"Pr:2, Nb:1, Fe:1, O:6",7.785,,,
Systematic_Generation,,,Pr2NbCoO6,,Fm-3m,,,,7.595,,,,,DPERO_001644,,,Double_Perovskite,7.578,,Pr2NbCoO6,"Pr:2, Nb:1, Co:1, O:6",8.462,,,
Systematic_Generation,,,Pr2TaWO6,,Fm-3m,,,,8.288,,,,,DPERO_001645,,,Double_Perovskite,7.965,,Pr2TaWO6,"Pr:2, Ta:1, W:1, O:6",8.058,,,
Systematic_Generation,,,Pr2TaMnO6,,Fm-3m,,,,7.892,,,,,DPERO_001646,,,Double_Perovskite,8.089,,Pr2TaMnO6,"Pr:2, Ta:1, Mn:1, O:6",7.625,,,
Systematic_Generation,,,Pr2TaFeO6,,R-3,,,,7.692,,,,,DPERO_001647,,,Double_Perovskite,7.741,,Pr2TaFeO6,"Pr:2, Ta:1, Fe:1, O:6",7.833,,,
Systematic_Generation,,,Pr2TaCoO6,,R-3,,,,8.218,,,,,DPERO_001648,,,Double_Perovskite,7.678,,Pr2TaCoO6,"Pr:2, Ta:1, Co:1, O:6",8.237,,,
Systematic_Generation,,,Pr2CrWO6,,Fm-3m,,,,8.223,,,,,DPERO_001649,,,Double_Perovskite,8.48,,Pr2CrWO6,"Pr:2, Cr:1, W:1, O:6",7.793,,,
Systematic_Generation,,,Pr2CrMnO6,,P21/n,,,,8.013,,,,,DPERO_001650,,,Double_Perovskite,8.489,,Pr2CrMnO6,"Pr:2, Cr:1, Mn:1, O:6",8.237,,,
Systematic_Generation,,,Pr2CrFeO6,,Fm-3m,,,,7.761,,,,,DPERO_001651,,,Double_Perovskite,7.963,,Pr2CrFeO6,"Pr:2, Cr:1, Fe:1, O:6",7.923,,,
Systematic_Generation,,,Pr2CrCoO6,,Fm-3m,,,,8.268,,,,,DPERO_001652,,,Double_Perovskite,8.278,,Pr2CrCoO6,"Pr:2, Cr:1, Co:1, O:6",8.222,,,
Systematic_Generation,,,Pr2MoWO6,,R-3,,,,7.808,,,,,DPERO_001653,,,Double_Perovskite,8.365,,Pr2MoWO6,"Pr:2, Mo:1, W:1, O:6",7.91,,,
Systematic_Generation,,,Pr2MoMnO6,,Fm-3m,,,,7.946,,,,,DPERO_001654,,,Double_Perovskite,7.718,,Pr2MoMnO6,"Pr:2, Mo:1, Mn:1, O:6",8.129,,,
Systematic_Generation,,,Pr2MoFeO6,,Fm-3m,,,,8.263,,,,,DPERO_001655,,,Double_Perovskite,7.805,,Pr2MoFeO6,"Pr:2, Mo:1, Fe:1, O:6",8.117,,,
Systematic_Generation,,,Pr2MoCoO6,,R-3,,,,7.575,,,,,DPERO_001656,,,Double_Perovskite,8.204,,Pr2MoCoO6,"Pr:2, Mo:1, Co:1, O:6",7.507,,,
Systematic_Generation,,,Nd2TiWO6,,P21/n,,,,8.388,,,,,DPERO_001657,,,Double_Perovskite,8.34,,Nd2TiWO6,"Nd:2, Ti:1, W:1, O:6",8.162,,,
Systematic_Generation,,,Nd2TiMnO6,,R-3,,,,8.399,,,,,DPERO_001658,,,Double_Perovskite,7.528,,Nd2TiMnO6,"Nd:2, Ti:1, Mn:1, O:6",7.61,,,
Systematic_Generation,,,Nd2TiFeO6,,P21/n,,,,7.908,,,,,DPERO_001659,,,Double_Perovskite,8.014,,Nd2TiFeO6,"Nd:2, Ti:1, Fe:1, O:6",8.222,,,
Systematic_Generation,,,Nd2TiCoO6,,Fm-3m,,,,7.925,,,,,DPERO_001660,,,Double_Perovskite,8.107,,Nd2TiCoO6,"Nd:2, Ti:1, Co:1, O:6",8.326,,,
Systematic_Generation,,,Nd2ZrWO6,,R-3,,,,7.925,,,,,DPERO_001661,,,Double_Perovskite,7.891,,Nd2ZrWO6,"Nd:2, Zr:1, W:1, O:6",8.495,,,
Systematic_Generation,,,Nd2ZrMnO6,,R-3,,,,7.847,,,,,DPERO_001662,,,Double_Perovskite,8.097,,Nd2ZrMnO6,"Nd:2, Zr:1, Mn:1, O:6",7.551,,,
Systematic_Generation,,,Nd2ZrFeO6,,R-3,,,,8.103,,,,,DPERO_001663,,,Double_Perovskite,7.782,,Nd2ZrFeO6,"Nd:2, Zr:1, Fe:1, O:6",7.847,,,
Systematic_Generation,,,Nd2ZrCoO6,,R-3,,,,8.34,,,,,DPERO_001664,,,Double_Perovskite,7.974,,Nd2ZrCoO6,"Nd:2, Zr:1, Co:1, O:6",7.94,,,
Systematic_Generation,,,Nd2HfWO6,,P21/n,,,,8.02,,,,,DPERO_001665,,,Double_Perovskite,7.992,,Nd2HfWO6,"Nd:2, Hf:1, W:1, O:6",7.597,,,
Systematic_Generation,,,Nd2HfMnO6,,Fm-3m,,,,7.661,,,,,DPERO_001666,,,Double_Perovskite,8.161,,Nd2HfMnO6,"Nd:2, Hf:1, Mn:1, O:6",8.235,,,
Systematic_Generation,,,Nd2HfFeO6,,R-3,,,,8.474,,,,,DPERO_001667,,,Double_Perovskite,8.311,,Nd2HfFeO6,"Nd:2, Hf:1, Fe:1, O:6",8.465,,,
Systematic_Generation,,,Nd2HfCoO6,,P21/n,,,,7.573,,,,,DPERO_001668,,,Double_Perovskite,7.743,,Nd2HfCoO6,"Nd:2, Hf:1, Co:1, O:6",7.842,,,
Systematic_Generation,,,Nd2VWO6,,Fm-3m,,,,7.754,,,,,DPERO_001669,,,Double_Perovskite,8.493,,Nd2VWO6,"Nd:2, V:1, W:1, O:6",8.15,,,
Systematic_Generation,,,Nd2VMnO6,,P21/n,,,,7.566,,,,,DPERO_001670,,,Double_Perovskite,7.845,,Nd2VMnO6,"Nd:2, V:1, Mn:1, O:6",8.215,,,
Systematic_Generation,,,Nd2VFeO6,,R-3,,,,7.552,,,,,DPERO_001671,,,Double_Perovskite,7.563,,Nd2VFeO6,"Nd:2, V:1, Fe:1, O:6",8.386,,,
Systematic_Generation,,,Nd2VCoO6,,R-3,,,,8.232,,,,,DPERO_001672,,,Double_Perovskite,7.984,,Nd2VCoO6,"Nd:2, V:1, Co:1, O:6",7.544,,,
Systematic_Generation,,,Nd2NbWO6,,R-3,,,,8.416,,,,,DPERO_001673,,,Double_Perovskite,8.393,,Nd2NbWO6,"Nd:2, Nb:1, W:1, O:6",7.988,,,
Systematic_Generation,,,Nd2NbMnO6,,P21/n,,,,7.955,,,,,DPERO_001674,,,Double_Perovskite,7.609,,Nd2NbMnO6,"Nd:2, Nb:1, Mn:1, O:6",7.839,,,
Systematic_Generation,,,Nd2NbFeO6,,R-3,,,,7.903,,,,,DPERO_001675,,,Double_Perovskite,7.52,,Nd2NbFeO6,"Nd:2, Nb:1, Fe:1, O:6",7.69,,,
Systematic_Generation,,,Nd2NbCoO6,,P21/n,,,,8.068,,,,,DPERO_001676,,,Double_Perovskite,8.33,,Nd2NbCoO6,"Nd:2, Nb:1, Co:1, O:6",7.589,,,
Systematic_Generation,,,Nd2TaWO6,,R-3,,,,8.372,,,,,DPERO_001677,,,Double_Perovskite,8.415,,Nd2TaWO6,"Nd:2, Ta:1, W:1, O:6",8.262,,,
Systematic_Generation,,,Nd2TaMnO6,,P21/n,,,,8.027,,,,,DPERO_001678,,,Double_Perovskite,8.303,,Nd2TaMnO6,"Nd:2, Ta:1, Mn:1, O:6",7.878,,,
Systematic_Generation,,,Nd2TaFeO6,,Fm-3m,,,,8.137,,,,,DPERO_001679,,,Double_Perovskite,8.418,,Nd2TaFeO6,"Nd:2, Ta:1, Fe:1, O:6",8.02,,,
Systematic_Generation,,,Nd2TaCoO6,,P21/n,,,,7.694,,,,,DPERO_001680,,,Double_Perovskite,8.136,,Nd2TaCoO6,"Nd:2, Ta:1, Co:1, O:6",8.381,,,
Systematic_Generation,,,Nd2CrWO6,,Fm-3m,,,,7.75,,,,,DPERO_001681,,,Double_Perovskite,8.322,,Nd2CrWO6,"Nd:2, Cr:1, W:1, O:6",8.241,,,
Systematic_Generation,,,Nd2CrMnO6,,R-3,,,,8.363,,,,,DPERO_001682,,,Double_Perovskite,8.3,,Nd2CrMnO6,"Nd:2, Cr:1, Mn:1, O:6",7.688,,,
Systematic_Generation,,,Nd2CrFeO6,,Fm-3m,,,,7.623,,,,,DPERO_001683,,,Double_Perovskite,8.229,,Nd2CrFeO6,"Nd:2, Cr:1, Fe:1, O:6",8.104,,,
Systematic_Generation,,,Nd2CrCoO6,,P21/n,,,,8.141,,,,,DPERO_001684,,,Double_Perovskite,8.429,,Nd2CrCoO6,"Nd:2, Cr:1, Co:1, O:6",8.348,,,
Systematic_Generation,,,Nd2MoWO6,,Fm-3m,,,,7.988,,,,,DPERO_001685,,,Double_Perovskite,8.119,,Nd2MoWO6,"Nd:2, Mo:1, W:1, O:6",7.995,,,
Systematic_Generation,,,Nd2MoMnO6,,Fm-3m,,,,7.986,,,,,DPERO_001686,,,Double_Perovskite,8.372,,Nd2MoMnO6,"Nd:2, Mo:1, Mn:1, O:6",7.522,,,
Systematic_Generation,,,Nd2MoFeO6,,R-3,,,,7.635,,,,,DPERO_001687,,,Double_Perovskite,8.178,,Nd2MoFeO6,"Nd:2, Mo:1, Fe:1, O:6",7.767,,,