source,n_elements,doping_concentration,name,termination,space_group,doping_level,volume_fraction,weight_percent,lattice_c,temperature,reinforcement,matrix,layers,material_id,molecular_weight,deposition_method,type,lattice_b,pdi,formula,composition,lattice_a,thickness_nm,dopant,substrate
Systematic_Generation,,1000000000000000.0,Ge:Sb_1.0e+15,,Inherited,,,,,,,,,DOPED_003114,,,Doped_Semiconductor,,,Ge_Sb,Ge + Sb @ 1.0e+15 cm^-3,,,Sb,
Systematic_Generation,,5000000000000000.0,Ge:Sb_5.0e+15,,Inherited,,,,,,,,,DOPED_003115,,,Doped_Semiconductor,,,Ge_Sb,Ge + Sb @ 5.0e+15 cm^-3,,,Sb,
Systematic_Generation,,1e+16,Ge:Sb_1.0e+16,,Inherited,,,,,,,,,DOPED_003116,,,Doped_Semiconductor,,,Ge_Sb,Ge + Sb @ 1.0e+16 cm^-3,,,Sb,
Systematic_Generation,,5e+16,Ge:Sb_5.0e+16,,Inherited,,,,,,,,,DOPED_003117,,,Doped_Semiconductor,,,Ge_Sb,Ge + Sb @ 5.0e+16 cm^-3,,,Sb,
Systematic_Generation,,1e+17,Ge:Sb_1.0e+17,,Inherited,,,,,,,,,DOPED_003118,,,Doped_Semiconductor,,,Ge_Sb,Ge + Sb @ 1.0e+17 cm^-3,,,Sb,
Systematic_Generation,,5e+17,Ge:Sb_5.0e+17,,Inherited,,,,,,,,,DOPED_003119,,,Doped_Semiconductor,,,Ge_Sb,Ge + Sb @ 5.0e+17 cm^-3,,,Sb,
Systematic_Generation,,1e+18,Ge:Sb_1.0e+18,,Inherited,,,,,,,,,DOPED_003120,,,Doped_Semiconductor,,,Ge_Sb,Ge + Sb @ 1.0e+18 cm^-3,,,Sb,
Systematic_Generation,,5e+18,Ge:Sb_5.0e+18,,Inherited,,,,,,,,,DOPED_003121,,,Doped_Semiconductor,,,Ge_Sb,Ge + Sb @ 5.0e+18 cm^-3,,,Sb,
Systematic_Generation,,1e+19,Ge:Sb_1.0e+19,,Inherited,,,,,,,,,DOPED_003122,,,Doped_Semiconductor,,,Ge_Sb,Ge + Sb @ 1.0e+19 cm^-3,,,Sb,
Systematic_Generation,,5e+19,Ge:Sb_5.0e+19,,Inherited,,,,,,,,,DOPED_003123,,,Doped_Semiconductor,,,Ge_Sb,Ge + Sb @ 5.0e+19 cm^-3,,,Sb,
Systematic_Generation,,1e+20,Ge:Sb_1.0e+20,,Inherited,,,,,,,,,DOPED_003124,,,Doped_Semiconductor,,,Ge_Sb,Ge + Sb @ 1.0e+20 cm^-3,,,Sb,
Systematic_Generation,,1e+21,Ge:Sb_1.0e+21,,Inherited,,,,,,,,,DOPED_003125,,,Doped_Semiconductor,,,Ge_Sb,Ge + Sb @ 1.0e+21 cm^-3,,,Sb,
Systematic_Generation,,1000000000000000.0,Ge:N_1.0e+15,,Inherited,,,,,,,,,DOPED_003126,,,Doped_Semiconductor,,,Ge_N,Ge + N @ 1.0e+15 cm^-3,,,N,
Systematic_Generation,,5000000000000000.0,Ge:N_5.0e+15,,Inherited,,,,,,,,,DOPED_003127,,,Doped_Semiconductor,,,Ge_N,Ge + N @ 5.0e+15 cm^-3,,,N,
Systematic_Generation,,1e+16,Ge:N_1.0e+16,,Inherited,,,,,,,,,DOPED_003128,,,Doped_Semiconductor,,,Ge_N,Ge + N @ 1.0e+16 cm^-3,,,N,
Systematic_Generation,,5e+16,Ge:N_5.0e+16,,Inherited,,,,,,,,,DOPED_003129,,,Doped_Semiconductor,,,Ge_N,Ge + N @ 5.0e+16 cm^-3,,,N,
Systematic_Generation,,1e+17,Ge:N_1.0e+17,,Inherited,,,,,,,,,DOPED_003130,,,Doped_Semiconductor,,,Ge_N,Ge + N @ 1.0e+17 cm^-3,,,N,
Systematic_Generation,,5e+17,Ge:N_5.0e+17,,Inherited,,,,,,,,,DOPED_003131,,,Doped_Semiconductor,,,Ge_N,Ge + N @ 5.0e+17 cm^-3,,,N,
Systematic_Generation,,1e+18,Ge:N_1.0e+18,,Inherited,,,,,,,,,DOPED_003132,,,Doped_Semiconductor,,,Ge_N,Ge + N @ 1.0e+18 cm^-3,,,N,
Systematic_Generation,,5e+18,Ge:N_5.0e+18,,Inherited,,,,,,,,,DOPED_003133,,,Doped_Semiconductor,,,Ge_N,Ge + N @ 5.0e+18 cm^-3,,,N,
Systematic_Generation,,1e+19,Ge:N_1.0e+19,,Inherited,,,,,,,,,DOPED_003134,,,Doped_Semiconductor,,,Ge_N,Ge + N @ 1.0e+19 cm^-3,,,N,
Systematic_Generation,,5e+19,Ge:N_5.0e+19,,Inherited,,,,,,,,,DOPED_003135,,,Doped_Semiconductor,,,Ge_N,Ge + N @ 5.0e+19 cm^-3,,,N,
Systematic_Generation,,1e+20,Ge:N_1.0e+20,,Inherited,,,,,,,,,DOPED_003136,,,Doped_Semiconductor,,,Ge_N,Ge + N @ 1.0e+20 cm^-3,,,N,
Systematic_Generation,,1e+21,Ge:N_1.0e+21,,Inherited,,,,,,,,,DOPED_003137,,,Doped_Semiconductor,,,Ge_N,Ge + N @ 1.0e+21 cm^-3,,,N,
Systematic_Generation,,1000000000000000.0,Ge:Al_1.0e+15,,Inherited,,,,,,,,,DOPED_003138,,,Doped_Semiconductor,,,Ge_Al,Ge + Al @ 1.0e+15 cm^-3,,,Al,
Systematic_Generation,,5000000000000000.0,Ge:Al_5.0e+15,,Inherited,,,,,,,,,DOPED_003139,,,Doped_Semiconductor,,,Ge_Al,Ge + Al @ 5.0e+15 cm^-3,,,Al,
Systematic_Generation,,1e+16,Ge:Al_1.0e+16,,Inherited,,,,,,,,,DOPED_003140,,,Doped_Semiconductor,,,Ge_Al,Ge + Al @ 1.0e+16 cm^-3,,,Al,
Systematic_Generation,,5e+16,Ge:Al_5.0e+16,,Inherited,,,,,,,,,DOPED_003141,,,Doped_Semiconductor,,,Ge_Al,Ge + Al @ 5.0e+16 cm^-3,,,Al,
Systematic_Generation,,1e+17,Ge:Al_1.0e+17,,Inherited,,,,,,,,,DOPED_003142,,,Doped_Semiconductor,,,Ge_Al,Ge + Al @ 1.0e+17 cm^-3,,,Al,
Systematic_Generation,,5e+17,Ge:Al_5.0e+17,,Inherited,,,,,,,,,DOPED_003143,,,Doped_Semiconductor,,,Ge_Al,Ge + Al @ 5.0e+17 cm^-3,,,Al,
Systematic_Generation,,1e+18,Ge:Al_1.0e+18,,Inherited,,,,,,,,,DOPED_003144,,,Doped_Semiconductor,,,Ge_Al,Ge + Al @ 1.0e+18 cm^-3,,,Al,
Systematic_Generation,,5e+18,Ge:Al_5.0e+18,,Inherited,,,,,,,,,DOPED_003145,,,Doped_Semiconductor,,,Ge_Al,Ge + Al @ 5.0e+18 cm^-3,,,Al,
Systematic_Generation,,1e+19,Ge:Al_1.0e+19,,Inherited,,,,,,,,,DOPED_003146,,,Doped_Semiconductor,,,Ge_Al,Ge + Al @ 1.0e+19 cm^-3,,,Al,
Systematic_Generation,,5e+19,Ge:Al_5.0e+19,,Inherited,,,,,,,,,DOPED_003147,,,Doped_Semiconductor,,,Ge_Al,Ge + Al @ 5.0e+19 cm^-3,,,Al,
Systematic_Generation,,1e+20,Ge:Al_1.0e+20,,Inherited,,,,,,,,,DOPED_003148,,,Doped_Semiconductor,,,Ge_Al,Ge + Al @ 1.0e+20 cm^-3,,,Al,
Systematic_Generation,,1e+21,Ge:Al_1.0e+21,,Inherited,,,,,,,,,DOPED_003149,,,Doped_Semiconductor,,,Ge_Al,Ge + Al @ 1.0e+21 cm^-3,,,Al,
Systematic_Generation,,1000000000000000.0,Ge:Ga_1.0e+15,,Inherited,,,,,,,,,DOPED_003150,,,Doped_Semiconductor,,,Ge_Ga,Ge + Ga @ 1.0e+15 cm^-3,,,Ga,
Systematic_Generation,,5000000000000000.0,Ge:Ga_5.0e+15,,Inherited,,,,,,,,,DOPED_003151,,,Doped_Semiconductor,,,Ge_Ga,Ge + Ga @ 5.0e+15 cm^-3,,,Ga,
Systematic_Generation,,1e+16,Ge:Ga_1.0e+16,,Inherited,,,,,,,,,DOPED_003152,,,Doped_Semiconductor,,,Ge_Ga,Ge + Ga @ 1.0e+16 cm^-3,,,Ga,
Systematic_Generation,,5e+16,Ge:Ga_5.0e+16,,Inherited,,,,,,,,,DOPED_003153,,,Doped_Semiconductor,,,Ge_Ga,Ge + Ga @ 5.0e+16 cm^-3,,,Ga,
Systematic_Generation,,1e+17,Ge:Ga_1.0e+17,,Inherited,,,,,,,,,DOPED_003154,,,Doped_Semiconductor,,,Ge_Ga,Ge + Ga @ 1.0e+17 cm^-3,,,Ga,
Systematic_Generation,,5e+17,Ge:Ga_5.0e+17,,Inherited,,,,,,,,,DOPED_003155,,,Doped_Semiconductor,,,Ge_Ga,Ge + Ga @ 5.0e+17 cm^-3,,,Ga,
Systematic_Generation,,1e+18,Ge:Ga_1.0e+18,,Inherited,,,,,,,,,DOPED_003156,,,Doped_Semiconductor,,,Ge_Ga,Ge + Ga @ 1.0e+18 cm^-3,,,Ga,
Systematic_Generation,,5e+18,Ge:Ga_5.0e+18,,Inherited,,,,,,,,,DOPED_003157,,,Doped_Semiconductor,,,Ge_Ga,Ge + Ga @ 5.0e+18 cm^-3,,,Ga,
Systematic_Generation,,1e+19,Ge:Ga_1.0e+19,,Inherited,,,,,,,,,DOPED_003158,,,Doped_Semiconductor,,,Ge_Ga,Ge + Ga @ 1.0e+19 cm^-3,,,Ga,
Systematic_Generation,,5e+19,Ge:Ga_5.0e+19,,Inherited,,,,,,,,,DOPED_003159,,,Doped_Semiconductor,,,Ge_Ga,Ge + Ga @ 5.0e+19 cm^-3,,,Ga,
Systematic_Generation,,1e+20,Ge:Ga_1.0e+20,,Inherited,,,,,,,,,DOPED_003160,,,Doped_Semiconductor,,,Ge_Ga,Ge + Ga @ 1.0e+20 cm^-3,,,Ga,
Systematic_Generation,,1e+21,Ge:Ga_1.0e+21,,Inherited,,,,,,,,,DOPED_003161,,,Doped_Semiconductor,,,Ge_Ga,Ge + Ga @ 1.0e+21 cm^-3,,,Ga,
Systematic_Generation,,1000000000000000.0,Ge:In_1.0e+15,,Inherited,,,,,,,,,DOPED_003162,,,Doped_Semiconductor,,,Ge_In,Ge + In @ 1.0e+15 cm^-3,,,In,
Systematic_Generation,,5000000000000000.0,Ge:In_5.0e+15,,Inherited,,,,,,,,,DOPED_003163,,,Doped_Semiconductor,,,Ge_In,Ge + In @ 5.0e+15 cm^-3,,,In,
Systematic_Generation,,1e+16,Ge:In_1.0e+16,,Inherited,,,,,,,,,DOPED_003164,,,Doped_Semiconductor,,,Ge_In,Ge + In @ 1.0e+16 cm^-3,,,In,
Systematic_Generation,,5e+16,Ge:In_5.0e+16,,Inherited,,,,,,,,,DOPED_003165,,,Doped_Semiconductor,,,Ge_In,Ge + In @ 5.0e+16 cm^-3,,,In,
Systematic_Generation,,1e+17,Ge:In_1.0e+17,,Inherited,,,,,,,,,DOPED_003166,,,Doped_Semiconductor,,,Ge_In,Ge + In @ 1.0e+17 cm^-3,,,In,
Systematic_Generation,,5e+17,Ge:In_5.0e+17,,Inherited,,,,,,,,,DOPED_003167,,,Doped_Semiconductor,,,Ge_In,Ge + In @ 5.0e+17 cm^-3,,,In,
Systematic_Generation,,1e+18,Ge:In_1.0e+18,,Inherited,,,,,,,,,DOPED_003168,,,Doped_Semiconductor,,,Ge_In,Ge + In @ 1.0e+18 cm^-3,,,In,
Systematic_Generation,,5e+18,Ge:In_5.0e+18,,Inherited,,,,,,,,,DOPED_003169,,,Doped_Semiconductor,,,Ge_In,Ge + In @ 5.0e+18 cm^-3,,,In,
Systematic_Generation,,1e+19,Ge:In_1.0e+19,,Inherited,,,,,,,,,DOPED_003170,,,Doped_Semiconductor,,,Ge_In,Ge + In @ 1.0e+19 cm^-3,,,In,
Systematic_Generation,,5e+19,Ge:In_5.0e+19,,Inherited,,,,,,,,,DOPED_003171,,,Doped_Semiconductor,,,Ge_In,Ge + In @ 5.0e+19 cm^-3,,,In,
Systematic_Generation,,1e+20,Ge:In_1.0e+20,,Inherited,,,,,,,,,DOPED_003172,,,Doped_Semiconductor,,,Ge_In,Ge + In @ 1.0e+20 cm^-3,,,In,
Systematic_Generation,,1e+21,Ge:In_1.0e+21,,Inherited,,,,,,,,,DOPED_003173,,,Doped_Semiconductor,,,Ge_In,Ge + In @ 1.0e+21 cm^-3,,,In,
Systematic_Generation,,1000000000000000.0,Ge:Bi_1.0e+15,,Inherited,,,,,,,,,DOPED_003174,,,Doped_Semiconductor,,,Ge_Bi,Ge + Bi @ 1.0e+15 cm^-3,,,Bi,
Systematic_Generation,,5000000000000000.0,Ge:Bi_5.0e+15,,Inherited,,,,,,,,,DOPED_003175,,,Doped_Semiconductor,,,Ge_Bi,Ge + Bi @ 5.0e+15 cm^-3,,,Bi,
Systematic_Generation,,1e+16,Ge:Bi_1.0e+16,,Inherited,,,,,,,,,DOPED_003176,,,Doped_Semiconductor,,,Ge_Bi,Ge + Bi @ 1.0e+16 cm^-3,,,Bi,
Systematic_Generation,,5e+16,Ge:Bi_5.0e+16,,Inherited,,,,,,,,,DOPED_003177,,,Doped_Semiconductor,,,Ge_Bi,Ge + Bi @ 5.0e+16 cm^-3,,,Bi,
Systematic_Generation,,1e+17,Ge:Bi_1.0e+17,,Inherited,,,,,,,,,DOPED_003178,,,Doped_Semiconductor,,,Ge_Bi,Ge + Bi @ 1.0e+17 cm^-3,,,Bi,
Systematic_Generation,,5e+17,Ge:Bi_5.0e+17,,Inherited,,,,,,,,,DOPED_003179,,,Doped_Semiconductor,,,Ge_Bi,Ge + Bi @ 5.0e+17 cm^-3,,,Bi,
Systematic_Generation,,1e+18,Ge:Bi_1.0e+18,,Inherited,,,,,,,,,DOPED_003180,,,Doped_Semiconductor,,,Ge_Bi,Ge + Bi @ 1.0e+18 cm^-3,,,Bi,
Systematic_Generation,,5e+18,Ge:Bi_5.0e+18,,Inherited,,,,,,,,,DOPED_003181,,,Doped_Semiconductor,,,Ge_Bi,Ge + Bi @ 5.0e+18 cm^-3,,,Bi,
Systematic_Generation,,1e+19,Ge:Bi_1.0e+19,,Inherited,,,,,,,,,DOPED_003182,,,Doped_Semiconductor,,,Ge_Bi,Ge + Bi @ 1.0e+19 cm^-3,,,Bi,
Systematic_Generation,,5e+19,Ge:Bi_5.0e+19,,Inherited,,,,,,,,,DOPED_003183,,,Doped_Semiconductor,,,Ge_Bi,Ge + Bi @ 5.0e+19 cm^-3,,,Bi,
Systematic_Generation,,1e+20,Ge:Bi_1.0e+20,,Inherited,,,,,,,,,DOPED_003184,,,Doped_Semiconductor,,,Ge_Bi,Ge + Bi @ 1.0e+20 cm^-3,,,Bi,
Systematic_Generation,,1e+21,Ge:Bi_1.0e+21,,Inherited,,,,,,,,,DOPED_003185,,,Doped_Semiconductor,,,Ge_Bi,Ge + Bi @ 1.0e+21 cm^-3,,,Bi,
Systematic_Generation,,1000000000000000.0,Ge:Li_1.0e+15,,Inherited,,,,,,,,,DOPED_003186,,,Doped_Semiconductor,,,Ge_Li,Ge + Li @ 1.0e+15 cm^-3,,,Li,
Systematic_Generation,,5000000000000000.0,Ge:Li_5.0e+15,,Inherited,,,,,,,,,DOPED_003187,,,Doped_Semiconductor,,,Ge_Li,Ge + Li @ 5.0e+15 cm^-3,,,Li,
Systematic_Generation,,1e+16,Ge:Li_1.0e+16,,Inherited,,,,,,,,,DOPED_003188,,,Doped_Semiconductor,,,Ge_Li,Ge + Li @ 1.0e+16 cm^-3,,,Li,
Systematic_Generation,,5e+16,Ge:Li_5.0e+16,,Inherited,,,,,,,,,DOPED_003189,,,Doped_Semiconductor,,,Ge_Li,Ge + Li @ 5.0e+16 cm^-3,,,Li,
Systematic_Generation,,1e+17,Ge:Li_1.0e+17,,Inherited,,,,,,,,,DOPED_003190,,,Doped_Semiconductor,,,Ge_Li,Ge + Li @ 1.0e+17 cm^-3,,,Li,
Systematic_Generation,,5e+17,Ge:Li_5.0e+17,,Inherited,,,,,,,,,DOPED_003191,,,Doped_Semiconductor,,,Ge_Li,Ge + Li @ 5.0e+17 cm^-3,,,Li,
Systematic_Generation,,1e+18,Ge:Li_1.0e+18,,Inherited,,,,,,,,,DOPED_003192,,,Doped_Semiconductor,,,Ge_Li,Ge + Li @ 1.0e+18 cm^-3,,,Li,
Systematic_Generation,,5e+18,Ge:Li_5.0e+18,,Inherited,,,,,,,,,DOPED_003193,,,Doped_Semiconductor,,,Ge_Li,Ge + Li @ 5.0e+18 cm^-3,,,Li,
Systematic_Generation,,1e+19,Ge:Li_1.0e+19,,Inherited,,,,,,,,,DOPED_003194,,,Doped_Semiconductor,,,Ge_Li,Ge + Li @ 1.0e+19 cm^-3,,,Li,
Systematic_Generation,,5e+19,Ge:Li_5.0e+19,,Inherited,,,,,,,,,DOPED_003195,,,Doped_Semiconductor,,,Ge_Li,Ge + Li @ 5.0e+19 cm^-3,,,Li,
Systematic_Generation,,1e+20,Ge:Li_1.0e+20,,Inherited,,,,,,,,,DOPED_003196,,,Doped_Semiconductor,,,Ge_Li,Ge + Li @ 1.0e+20 cm^-3,,,Li,
Systematic_Generation,,1e+21,Ge:Li_1.0e+21,,Inherited,,,,,,,,,DOPED_003197,,,Doped_Semiconductor,,,Ge_Li,Ge + Li @ 1.0e+21 cm^-3,,,Li,
Systematic_Generation,,1000000000000000.0,Ge:S_1.0e+15,,Inherited,,,,,,,,,DOPED_003198,,,Doped_Semiconductor,,,Ge_S,Ge + S @ 1.0e+15 cm^-3,,,S,
Systematic_Generation,,5000000000000000.0,Ge:S_5.0e+15,,Inherited,,,,,,,,,DOPED_003199,,,Doped_Semiconductor,,,Ge_S,Ge + S @ 5.0e+15 cm^-3,,,S,
Systematic_Generation,,1e+16,Ge:S_1.0e+16,,Inherited,,,,,,,,,DOPED_003200,,,Doped_Semiconductor,,,Ge_S,Ge + S @ 1.0e+16 cm^-3,,,S,
Systematic_Generation,,5e+16,Ge:S_5.0e+16,,Inherited,,,,,,,,,DOPED_003201,,,Doped_Semiconductor,,,Ge_S,Ge + S @ 5.0e+16 cm^-3,,,S,
Systematic_Generation,,1e+17,Ge:S_1.0e+17,,Inherited,,,,,,,,,DOPED_003202,,,Doped_Semiconductor,,,Ge_S,Ge + S @ 1.0e+17 cm^-3,,,S,
Systematic_Generation,,5e+17,Ge:S_5.0e+17,,Inherited,,,,,,,,,DOPED_003203,,,Doped_Semiconductor,,,Ge_S,Ge + S @ 5.0e+17 cm^-3,,,S,
Systematic_Generation,,1e+18,Ge:S_1.0e+18,,Inherited,,,,,,,,,DOPED_003204,,,Doped_Semiconductor,,,Ge_S,Ge + S @ 1.0e+18 cm^-3,,,S,
Systematic_Generation,,5e+18,Ge:S_5.0e+18,,Inherited,,,,,,,,,DOPED_003205,,,Doped_Semiconductor,,,Ge_S,Ge + S @ 5.0e+18 cm^-3,,,S,
Systematic_Generation,,1e+19,Ge:S_1.0e+19,,Inherited,,,,,,,,,DOPED_003206,,,Doped_Semiconductor,,,Ge_S,Ge + S @ 1.0e+19 cm^-3,,,S,
Systematic_Generation,,5e+19,Ge:S_5.0e+19,,Inherited,,,,,,,,,DOPED_003207,,,Doped_Semiconductor,,,Ge_S,Ge + S @ 5.0e+19 cm^-3,,,S,
Systematic_Generation,,1e+20,Ge:S_1.0e+20,,Inherited,,,,,,,,,DOPED_003208,,,Doped_Semiconductor,,,Ge_S,Ge + S @ 1.0e+20 cm^-3,,,S,
Systematic_Generation,,1e+21,Ge:S_1.0e+21,,Inherited,,,,,,,,,DOPED_003209,,,Doped_Semiconductor,,,Ge_S,Ge + S @ 1.0e+21 cm^-3,,,S,
Systematic_Generation,,1000000000000000.0,Ge:Se_1.0e+15,,Inherited,,,,,,,,,DOPED_003210,,,Doped_Semiconductor,,,Ge_Se,Ge + Se @ 1.0e+15 cm^-3,,,Se,
Systematic_Generation,,5000000000000000.0,Ge:Se_5.0e+15,,Inherited,,,,,,,,,DOPED_003211,,,Doped_Semiconductor,,,Ge_Se,Ge + Se @ 5.0e+15 cm^-3,,,Se,
Systematic_Generation,,1e+16,Ge:Se_1.0e+16,,Inherited,,,,,,,,,DOPED_003212,,,Doped_Semiconductor,,,Ge_Se,Ge + Se @ 1.0e+16 cm^-3,,,Se,
Systematic_Generation,,5e+16,Ge:Se_5.0e+16,,Inherited,,,,,,,,,DOPED_003213,,,Doped_Semiconductor,,,Ge_Se,Ge + Se @ 5.0e+16 cm^-3,,,Se,
Systematic_Generation,,1e+17,Ge:Se_1.0e+17,,Inherited,,,,,,,,,DOPED_003214,,,Doped_Semiconductor,,,Ge_Se,Ge + Se @ 1.0e+17 cm^-3,,,Se,
Systematic_Generation,,5e+17,Ge:Se_5.0e+17,,Inherited,,,,,,,,,DOPED_003215,,,Doped_Semiconductor,,,Ge_Se,Ge + Se @ 5.0e+17 cm^-3,,,Se,
Systematic_Generation,,1e+18,Ge:Se_1.0e+18,,Inherited,,,,,,,,,DOPED_003216,,,Doped_Semiconductor,,,Ge_Se,Ge + Se @ 1.0e+18 cm^-3,,,Se,
Systematic_Generation,,5e+18,Ge:Se_5.0e+18,,Inherited,,,,,,,,,DOPED_003217,,,Doped_Semiconductor,,,Ge_Se,Ge + Se @ 5.0e+18 cm^-3,,,Se,
Systematic_Generation,,1e+19,Ge:Se_1.0e+19,,Inherited,,,,,,,,,DOPED_003218,,,Doped_Semiconductor,,,Ge_Se,Ge + Se @ 1.0e+19 cm^-3,,,Se,
Systematic_Generation,,5e+19,Ge:Se_5.0e+19,,Inherited,,,,,,,,,DOPED_003219,,,Doped_Semiconductor,,,Ge_Se,Ge + Se @ 5.0e+19 cm^-3,,,Se,
Systematic_Generation,,1e+20,Ge:Se_1.0e+20,,Inherited,,,,,,,,,DOPED_003220,,,Doped_Semiconductor,,,Ge_Se,Ge + Se @ 1.0e+20 cm^-3,,,Se,
Systematic_Generation,,1e+21,Ge:Se_1.0e+21,,Inherited,,,,,,,,,DOPED_003221,,,Doped_Semiconductor,,,Ge_Se,Ge + Se @ 1.0e+21 cm^-3,,,Se,
Systematic_Generation,,1000000000000000.0,Ge:Te_1.0e+15,,Inherited,,,,,,,,,DOPED_003222,,,Doped_Semiconductor,,,Ge_Te,Ge + Te @ 1.0e+15 cm^-3,,,Te,
Systematic_Generation,,5000000000000000.0,Ge:Te_5.0e+15,,Inherited,,,,,,,,,DOPED_003223,,,Doped_Semiconductor,,,Ge_Te,Ge + Te @ 5.0e+15 cm^-3,,,Te,
Systematic_Generation,,1e+16,Ge:Te_1.0e+16,,Inherited,,,,,,,,,DOPED_003224,,,Doped_Semiconductor,,,Ge_Te,Ge + Te @ 1.0e+16 cm^-3,,,Te,
Systematic_Generation,,5e+16,Ge:Te_5.0e+16,,Inherited,,,,,,,,,DOPED_003225,,,Doped_Semiconductor,,,Ge_Te,Ge + Te @ 5.0e+16 cm^-3,,,Te,
Systematic_Generation,,1e+17,Ge:Te_1.0e+17,,Inherited,,,,,,,,,DOPED_003226,,,Doped_Semiconductor,,,Ge_Te,Ge + Te @ 1.0e+17 cm^-3,,,Te,
Systematic_Generation,,5e+17,Ge:Te_5.0e+17,,Inherited,,,,,,,,,DOPED_003227,,,Doped_Semiconductor,,,Ge_Te,Ge + Te @ 5.0e+17 cm^-3,,,Te,
Systematic_Generation,,1e+18,Ge:Te_1.0e+18,,Inherited,,,,,,,,,DOPED_003228,,,Doped_Semiconductor,,,Ge_Te,Ge + Te @ 1.0e+18 cm^-3,,,Te,
Systematic_Generation,,5e+18,Ge:Te_5.0e+18,,Inherited,,,,,,,,,DOPED_003229,,,Doped_Semiconductor,,,Ge_Te,Ge + Te @ 5.0e+18 cm^-3,,,Te,
Systematic_Generation,,1e+19,Ge:Te_1.0e+19,,Inherited,,,,,,,,,DOPED_003230,,,Doped_Semiconductor,,,Ge_Te,Ge + Te @ 1.0e+19 cm^-3,,,Te,
Systematic_Generation,,5e+19,Ge:Te_5.0e+19,,Inherited,,,,,,,,,DOPED_003231,,,Doped_Semiconductor,,,Ge_Te,Ge + Te @ 5.0e+19 cm^-3,,,Te,
Systematic_Generation,,1e+20,Ge:Te_1.0e+20,,Inherited,,,,,,,,,DOPED_003232,,,Doped_Semiconductor,,,Ge_Te,Ge + Te @ 1.0e+20 cm^-3,,,Te,
Systematic_Generation,,1e+21,Ge:Te_1.0e+21,,Inherited,,,,,,,,,DOPED_003233,,,Doped_Semiconductor,,,Ge_Te,Ge + Te @ 1.0e+21 cm^-3,,,Te,
Systematic_Generation,,1000000000000000.0,GaAs:B_1.0e+15,,Inherited,,,,,,,,,DOPED_003234,,,Doped_Semiconductor,,,GaAs_B,GaAs + B @ 1.0e+15 cm^-3,,,B,
Systematic_Generation,,5000000000000000.0,GaAs:B_5.0e+15,,Inherited,,,,,,,,,DOPED_003235,,,Doped_Semiconductor,,,GaAs_B,GaAs + B @ 5.0e+15 cm^-3,,,B,
Systematic_Generation,,1e+16,GaAs:B_1.0e+16,,Inherited,,,,,,,,,DOPED_003236,,,Doped_Semiconductor,,,GaAs_B,GaAs + B @ 1.0e+16 cm^-3,,,B,
Systematic_Generation,,5e+16,GaAs:B_5.0e+16,,Inherited,,,,,,,,,DOPED_003237,,,Doped_Semiconductor,,,GaAs_B,GaAs + B @ 5.0e+16 cm^-3,,,B,
Systematic_Generation,,1e+17,GaAs:B_1.0e+17,,Inherited,,,,,,,,,DOPED_003238,,,Doped_Semiconductor,,,GaAs_B,GaAs + B @ 1.0e+17 cm^-3,,,B,
Systematic_Generation,,5e+17,GaAs:B_5.0e+17,,Inherited,,,,,,,,,DOPED_003239,,,Doped_Semiconductor,,,GaAs_B,GaAs + B @ 5.0e+17 cm^-3,,,B,
Systematic_Generation,,1e+18,GaAs:B_1.0e+18,,Inherited,,,,,,,,,DOPED_003240,,,Doped_Semiconductor,,,GaAs_B,GaAs + B @ 1.0e+18 cm^-3,,,B,
Systematic_Generation,,5e+18,GaAs:B_5.0e+18,,Inherited,,,,,,,,,DOPED_003241,,,Doped_Semiconductor,,,GaAs_B,GaAs + B @ 5.0e+18 cm^-3,,,B,
Systematic_Generation,,1e+19,GaAs:B_1.0e+19,,Inherited,,,,,,,,,DOPED_003242,,,Doped_Semiconductor,,,GaAs_B,GaAs + B @ 1.0e+19 cm^-3,,,B,
Systematic_Generation,,5e+19,GaAs:B_5.0e+19,,Inherited,,,,,,,,,DOPED_003243,,,Doped_Semiconductor,,,GaAs_B,GaAs + B @ 5.0e+19 cm^-3,,,B,
Systematic_Generation,,1e+20,GaAs:B_1.0e+20,,Inherited,,,,,,,,,DOPED_003244,,,Doped_Semiconductor,,,GaAs_B,GaAs + B @ 1.0e+20 cm^-3,,,B,
Systematic_Generation,,1e+21,GaAs:B_1.0e+21,,Inherited,,,,,,,,,DOPED_003245,,,Doped_Semiconductor,,,GaAs_B,GaAs + B @ 1.0e+21 cm^-3,,,B,
Systematic_Generation,,1000000000000000.0,GaAs:P_1.0e+15,,Inherited,,,,,,,,,DOPED_003246,,,Doped_Semiconductor,,,GaAs_P,GaAs + P @ 1.0e+15 cm^-3,,,P,
Systematic_Generation,,5000000000000000.0,GaAs:P_5.0e+15,,Inherited,,,,,,,,,DOPED_003247,,,Doped_Semiconductor,,,GaAs_P,GaAs + P @ 5.0e+15 cm^-3,,,P,
Systematic_Generation,,1e+16,GaAs:P_1.0e+16,,Inherited,,,,,,,,,DOPED_003248,,,Doped_Semiconductor,,,GaAs_P,GaAs + P @ 1.0e+16 cm^-3,,,P,
Systematic_Generation,,5e+16,GaAs:P_5.0e+16,,Inherited,,,,,,,,,DOPED_003249,,,Doped_Semiconductor,,,GaAs_P,GaAs + P @ 5.0e+16 cm^-3,,,P,
Systematic_Generation,,1e+17,GaAs:P_1.0e+17,,Inherited,,,,,,,,,DOPED_003250,,,Doped_Semiconductor,,,GaAs_P,GaAs + P @ 1.0e+17 cm^-3,,,P,
Systematic_Generation,,5e+17,GaAs:P_5.0e+17,,Inherited,,,,,,,,,DOPED_003251,,,Doped_Semiconductor,,,GaAs_P,GaAs + P @ 5.0e+17 cm^-3,,,P,
Systematic_Generation,,1e+18,GaAs:P_1.0e+18,,Inherited,,,,,,,,,DOPED_003252,,,Doped_Semiconductor,,,GaAs_P,GaAs + P @ 1.0e+18 cm^-3,,,P,
Systematic_Generation,,5e+18,GaAs:P_5.0e+18,,Inherited,,,,,,,,,DOPED_003253,,,Doped_Semiconductor,,,GaAs_P,GaAs + P @ 5.0e+18 cm^-3,,,P,
Systematic_Generation,,1e+19,GaAs:P_1.0e+19,,Inherited,,,,,,,,,DOPED_003254,,,Doped_Semiconductor,,,GaAs_P,GaAs + P @ 1.0e+19 cm^-3,,,P,
Systematic_Generation,,5e+19,GaAs:P_5.0e+19,,Inherited,,,,,,,,,DOPED_003255,,,Doped_Semiconductor,,,GaAs_P,GaAs + P @ 5.0e+19 cm^-3,,,P,
Systematic_Generation,,1e+20,GaAs:P_1.0e+20,,Inherited,,,,,,,,,DOPED_003256,,,Doped_Semiconductor,,,GaAs_P,GaAs + P @ 1.0e+20 cm^-3,,,P,
Systematic_Generation,,1e+21,GaAs:P_1.0e+21,,Inherited,,,,,,,,,DOPED_003257,,,Doped_Semiconductor,,,GaAs_P,GaAs + P @ 1.0e+21 cm^-3,,,P,