source,n_elements,doping_concentration,name,termination,space_group,doping_level,volume_fraction,weight_percent,lattice_c,temperature,reinforcement,matrix,layers,material_id,molecular_weight,deposition_method,type,lattice_b,pdi,formula,composition,lattice_a,thickness_nm,dopant,substrate
Systematic_Generation,,1e+18,GaSb:As_1.0e+18,,Inherited,,,,,,,,,DOPED_004512,,,Doped_Semiconductor,,,GaSb_As,GaSb + As @ 1.0e+18 cm^-3,,,As,
Systematic_Generation,,5e+18,GaSb:As_5.0e+18,,Inherited,,,,,,,,,DOPED_004513,,,Doped_Semiconductor,,,GaSb_As,GaSb + As @ 5.0e+18 cm^-3,,,As,
Systematic_Generation,,1e+19,GaSb:As_1.0e+19,,Inherited,,,,,,,,,DOPED_004514,,,Doped_Semiconductor,,,GaSb_As,GaSb + As @ 1.0e+19 cm^-3,,,As,
Systematic_Generation,,5e+19,GaSb:As_5.0e+19,,Inherited,,,,,,,,,DOPED_004515,,,Doped_Semiconductor,,,GaSb_As,GaSb + As @ 5.0e+19 cm^-3,,,As,
Systematic_Generation,,1e+20,GaSb:As_1.0e+20,,Inherited,,,,,,,,,DOPED_004516,,,Doped_Semiconductor,,,GaSb_As,GaSb + As @ 1.0e+20 cm^-3,,,As,
Systematic_Generation,,1e+21,GaSb:As_1.0e+21,,Inherited,,,,,,,,,DOPED_004517,,,Doped_Semiconductor,,,GaSb_As,GaSb + As @ 1.0e+21 cm^-3,,,As,
Systematic_Generation,,1000000000000000.0,GaSb:Sb_1.0e+15,,Inherited,,,,,,,,,DOPED_004518,,,Doped_Semiconductor,,,GaSb_Sb,GaSb + Sb @ 1.0e+15 cm^-3,,,Sb,
Systematic_Generation,,5000000000000000.0,GaSb:Sb_5.0e+15,,Inherited,,,,,,,,,DOPED_004519,,,Doped_Semiconductor,,,GaSb_Sb,GaSb + Sb @ 5.0e+15 cm^-3,,,Sb,
Systematic_Generation,,1e+16,GaSb:Sb_1.0e+16,,Inherited,,,,,,,,,DOPED_004520,,,Doped_Semiconductor,,,GaSb_Sb,GaSb + Sb @ 1.0e+16 cm^-3,,,Sb,
Systematic_Generation,,5e+16,GaSb:Sb_5.0e+16,,Inherited,,,,,,,,,DOPED_004521,,,Doped_Semiconductor,,,GaSb_Sb,GaSb + Sb @ 5.0e+16 cm^-3,,,Sb,
Systematic_Generation,,1e+17,GaSb:Sb_1.0e+17,,Inherited,,,,,,,,,DOPED_004522,,,Doped_Semiconductor,,,GaSb_Sb,GaSb + Sb @ 1.0e+17 cm^-3,,,Sb,
Systematic_Generation,,5e+17,GaSb:Sb_5.0e+17,,Inherited,,,,,,,,,DOPED_004523,,,Doped_Semiconductor,,,GaSb_Sb,GaSb + Sb @ 5.0e+17 cm^-3,,,Sb,
Systematic_Generation,,1e+18,GaSb:Sb_1.0e+18,,Inherited,,,,,,,,,DOPED_004524,,,Doped_Semiconductor,,,GaSb_Sb,GaSb + Sb @ 1.0e+18 cm^-3,,,Sb,
Systematic_Generation,,5e+18,GaSb:Sb_5.0e+18,,Inherited,,,,,,,,,DOPED_004525,,,Doped_Semiconductor,,,GaSb_Sb,GaSb + Sb @ 5.0e+18 cm^-3,,,Sb,
Systematic_Generation,,1e+19,GaSb:Sb_1.0e+19,,Inherited,,,,,,,,,DOPED_004526,,,Doped_Semiconductor,,,GaSb_Sb,GaSb + Sb @ 1.0e+19 cm^-3,,,Sb,
Systematic_Generation,,5e+19,GaSb:Sb_5.0e+19,,Inherited,,,,,,,,,DOPED_004527,,,Doped_Semiconductor,,,GaSb_Sb,GaSb + Sb @ 5.0e+19 cm^-3,,,Sb,
Systematic_Generation,,1e+20,GaSb:Sb_1.0e+20,,Inherited,,,,,,,,,DOPED_004528,,,Doped_Semiconductor,,,GaSb_Sb,GaSb + Sb @ 1.0e+20 cm^-3,,,Sb,
Systematic_Generation,,1e+21,GaSb:Sb_1.0e+21,,Inherited,,,,,,,,,DOPED_004529,,,Doped_Semiconductor,,,GaSb_Sb,GaSb + Sb @ 1.0e+21 cm^-3,,,Sb,
Systematic_Generation,,1000000000000000.0,GaSb:N_1.0e+15,,Inherited,,,,,,,,,DOPED_004530,,,Doped_Semiconductor,,,GaSb_N,GaSb + N @ 1.0e+15 cm^-3,,,N,
Systematic_Generation,,5000000000000000.0,GaSb:N_5.0e+15,,Inherited,,,,,,,,,DOPED_004531,,,Doped_Semiconductor,,,GaSb_N,GaSb + N @ 5.0e+15 cm^-3,,,N,
Systematic_Generation,,1e+16,GaSb:N_1.0e+16,,Inherited,,,,,,,,,DOPED_004532,,,Doped_Semiconductor,,,GaSb_N,GaSb + N @ 1.0e+16 cm^-3,,,N,
Systematic_Generation,,5e+16,GaSb:N_5.0e+16,,Inherited,,,,,,,,,DOPED_004533,,,Doped_Semiconductor,,,GaSb_N,GaSb + N @ 5.0e+16 cm^-3,,,N,
Systematic_Generation,,1e+17,GaSb:N_1.0e+17,,Inherited,,,,,,,,,DOPED_004534,,,Doped_Semiconductor,,,GaSb_N,GaSb + N @ 1.0e+17 cm^-3,,,N,
Systematic_Generation,,5e+17,GaSb:N_5.0e+17,,Inherited,,,,,,,,,DOPED_004535,,,Doped_Semiconductor,,,GaSb_N,GaSb + N @ 5.0e+17 cm^-3,,,N,
Systematic_Generation,,1e+18,GaSb:N_1.0e+18,,Inherited,,,,,,,,,DOPED_004536,,,Doped_Semiconductor,,,GaSb_N,GaSb + N @ 1.0e+18 cm^-3,,,N,
Systematic_Generation,,5e+18,GaSb:N_5.0e+18,,Inherited,,,,,,,,,DOPED_004537,,,Doped_Semiconductor,,,GaSb_N,GaSb + N @ 5.0e+18 cm^-3,,,N,
Systematic_Generation,,1e+19,GaSb:N_1.0e+19,,Inherited,,,,,,,,,DOPED_004538,,,Doped_Semiconductor,,,GaSb_N,GaSb + N @ 1.0e+19 cm^-3,,,N,
Systematic_Generation,,5e+19,GaSb:N_5.0e+19,,Inherited,,,,,,,,,DOPED_004539,,,Doped_Semiconductor,,,GaSb_N,GaSb + N @ 5.0e+19 cm^-3,,,N,
Systematic_Generation,,1e+20,GaSb:N_1.0e+20,,Inherited,,,,,,,,,DOPED_004540,,,Doped_Semiconductor,,,GaSb_N,GaSb + N @ 1.0e+20 cm^-3,,,N,
Systematic_Generation,,1e+21,GaSb:N_1.0e+21,,Inherited,,,,,,,,,DOPED_004541,,,Doped_Semiconductor,,,GaSb_N,GaSb + N @ 1.0e+21 cm^-3,,,N,
Systematic_Generation,,1000000000000000.0,GaSb:Al_1.0e+15,,Inherited,,,,,,,,,DOPED_004542,,,Doped_Semiconductor,,,GaSb_Al,GaSb + Al @ 1.0e+15 cm^-3,,,Al,
Systematic_Generation,,5000000000000000.0,GaSb:Al_5.0e+15,,Inherited,,,,,,,,,DOPED_004543,,,Doped_Semiconductor,,,GaSb_Al,GaSb + Al @ 5.0e+15 cm^-3,,,Al,
Systematic_Generation,,1e+16,GaSb:Al_1.0e+16,,Inherited,,,,,,,,,DOPED_004544,,,Doped_Semiconductor,,,GaSb_Al,GaSb + Al @ 1.0e+16 cm^-3,,,Al,
Systematic_Generation,,5e+16,GaSb:Al_5.0e+16,,Inherited,,,,,,,,,DOPED_004545,,,Doped_Semiconductor,,,GaSb_Al,GaSb + Al @ 5.0e+16 cm^-3,,,Al,
Systematic_Generation,,1e+17,GaSb:Al_1.0e+17,,Inherited,,,,,,,,,DOPED_004546,,,Doped_Semiconductor,,,GaSb_Al,GaSb + Al @ 1.0e+17 cm^-3,,,Al,
Systematic_Generation,,5e+17,GaSb:Al_5.0e+17,,Inherited,,,,,,,,,DOPED_004547,,,Doped_Semiconductor,,,GaSb_Al,GaSb + Al @ 5.0e+17 cm^-3,,,Al,
Systematic_Generation,,1e+18,GaSb:Al_1.0e+18,,Inherited,,,,,,,,,DOPED_004548,,,Doped_Semiconductor,,,GaSb_Al,GaSb + Al @ 1.0e+18 cm^-3,,,Al,
Systematic_Generation,,5e+18,GaSb:Al_5.0e+18,,Inherited,,,,,,,,,DOPED_004549,,,Doped_Semiconductor,,,GaSb_Al,GaSb + Al @ 5.0e+18 cm^-3,,,Al,
Systematic_Generation,,1e+19,GaSb:Al_1.0e+19,,Inherited,,,,,,,,,DOPED_004550,,,Doped_Semiconductor,,,GaSb_Al,GaSb + Al @ 1.0e+19 cm^-3,,,Al,
Systematic_Generation,,5e+19,GaSb:Al_5.0e+19,,Inherited,,,,,,,,,DOPED_004551,,,Doped_Semiconductor,,,GaSb_Al,GaSb + Al @ 5.0e+19 cm^-3,,,Al,
Systematic_Generation,,1e+20,GaSb:Al_1.0e+20,,Inherited,,,,,,,,,DOPED_004552,,,Doped_Semiconductor,,,GaSb_Al,GaSb + Al @ 1.0e+20 cm^-3,,,Al,
Systematic_Generation,,1e+21,GaSb:Al_1.0e+21,,Inherited,,,,,,,,,DOPED_004553,,,Doped_Semiconductor,,,GaSb_Al,GaSb + Al @ 1.0e+21 cm^-3,,,Al,
Systematic_Generation,,1000000000000000.0,GaSb:Ga_1.0e+15,,Inherited,,,,,,,,,DOPED_004554,,,Doped_Semiconductor,,,GaSb_Ga,GaSb + Ga @ 1.0e+15 cm^-3,,,Ga,
Systematic_Generation,,5000000000000000.0,GaSb:Ga_5.0e+15,,Inherited,,,,,,,,,DOPED_004555,,,Doped_Semiconductor,,,GaSb_Ga,GaSb + Ga @ 5.0e+15 cm^-3,,,Ga,
Systematic_Generation,,1e+16,GaSb:Ga_1.0e+16,,Inherited,,,,,,,,,DOPED_004556,,,Doped_Semiconductor,,,GaSb_Ga,GaSb + Ga @ 1.0e+16 cm^-3,,,Ga,
Systematic_Generation,,5e+16,GaSb:Ga_5.0e+16,,Inherited,,,,,,,,,DOPED_004557,,,Doped_Semiconductor,,,GaSb_Ga,GaSb + Ga @ 5.0e+16 cm^-3,,,Ga,
Systematic_Generation,,1e+17,GaSb:Ga_1.0e+17,,Inherited,,,,,,,,,DOPED_004558,,,Doped_Semiconductor,,,GaSb_Ga,GaSb + Ga @ 1.0e+17 cm^-3,,,Ga,
Systematic_Generation,,5e+17,GaSb:Ga_5.0e+17,,Inherited,,,,,,,,,DOPED_004559,,,Doped_Semiconductor,,,GaSb_Ga,GaSb + Ga @ 5.0e+17 cm^-3,,,Ga,
Systematic_Generation,,1e+18,GaSb:Ga_1.0e+18,,Inherited,,,,,,,,,DOPED_004560,,,Doped_Semiconductor,,,GaSb_Ga,GaSb + Ga @ 1.0e+18 cm^-3,,,Ga,
Systematic_Generation,,5e+18,GaSb:Ga_5.0e+18,,Inherited,,,,,,,,,DOPED_004561,,,Doped_Semiconductor,,,GaSb_Ga,GaSb + Ga @ 5.0e+18 cm^-3,,,Ga,
Systematic_Generation,,1e+19,GaSb:Ga_1.0e+19,,Inherited,,,,,,,,,DOPED_004562,,,Doped_Semiconductor,,,GaSb_Ga,GaSb + Ga @ 1.0e+19 cm^-3,,,Ga,
Systematic_Generation,,5e+19,GaSb:Ga_5.0e+19,,Inherited,,,,,,,,,DOPED_004563,,,Doped_Semiconductor,,,GaSb_Ga,GaSb + Ga @ 5.0e+19 cm^-3,,,Ga,
Systematic_Generation,,1e+20,GaSb:Ga_1.0e+20,,Inherited,,,,,,,,,DOPED_004564,,,Doped_Semiconductor,,,GaSb_Ga,GaSb + Ga @ 1.0e+20 cm^-3,,,Ga,
Systematic_Generation,,1e+21,GaSb:Ga_1.0e+21,,Inherited,,,,,,,,,DOPED_004565,,,Doped_Semiconductor,,,GaSb_Ga,GaSb + Ga @ 1.0e+21 cm^-3,,,Ga,
Systematic_Generation,,1000000000000000.0,GaSb:In_1.0e+15,,Inherited,,,,,,,,,DOPED_004566,,,Doped_Semiconductor,,,GaSb_In,GaSb + In @ 1.0e+15 cm^-3,,,In,
Systematic_Generation,,5000000000000000.0,GaSb:In_5.0e+15,,Inherited,,,,,,,,,DOPED_004567,,,Doped_Semiconductor,,,GaSb_In,GaSb + In @ 5.0e+15 cm^-3,,,In,
Systematic_Generation,,1e+16,GaSb:In_1.0e+16,,Inherited,,,,,,,,,DOPED_004568,,,Doped_Semiconductor,,,GaSb_In,GaSb + In @ 1.0e+16 cm^-3,,,In,
Systematic_Generation,,5e+16,GaSb:In_5.0e+16,,Inherited,,,,,,,,,DOPED_004569,,,Doped_Semiconductor,,,GaSb_In,GaSb + In @ 5.0e+16 cm^-3,,,In,
Systematic_Generation,,1e+17,GaSb:In_1.0e+17,,Inherited,,,,,,,,,DOPED_004570,,,Doped_Semiconductor,,,GaSb_In,GaSb + In @ 1.0e+17 cm^-3,,,In,
Systematic_Generation,,5e+17,GaSb:In_5.0e+17,,Inherited,,,,,,,,,DOPED_004571,,,Doped_Semiconductor,,,GaSb_In,GaSb + In @ 5.0e+17 cm^-3,,,In,
Systematic_Generation,,1e+18,GaSb:In_1.0e+18,,Inherited,,,,,,,,,DOPED_004572,,,Doped_Semiconductor,,,GaSb_In,GaSb + In @ 1.0e+18 cm^-3,,,In,
Systematic_Generation,,5e+18,GaSb:In_5.0e+18,,Inherited,,,,,,,,,DOPED_004573,,,Doped_Semiconductor,,,GaSb_In,GaSb + In @ 5.0e+18 cm^-3,,,In,
Systematic_Generation,,1e+19,GaSb:In_1.0e+19,,Inherited,,,,,,,,,DOPED_004574,,,Doped_Semiconductor,,,GaSb_In,GaSb + In @ 1.0e+19 cm^-3,,,In,
Systematic_Generation,,5e+19,GaSb:In_5.0e+19,,Inherited,,,,,,,,,DOPED_004575,,,Doped_Semiconductor,,,GaSb_In,GaSb + In @ 5.0e+19 cm^-3,,,In,
Systematic_Generation,,1e+20,GaSb:In_1.0e+20,,Inherited,,,,,,,,,DOPED_004576,,,Doped_Semiconductor,,,GaSb_In,GaSb + In @ 1.0e+20 cm^-3,,,In,
Systematic_Generation,,1e+21,GaSb:In_1.0e+21,,Inherited,,,,,,,,,DOPED_004577,,,Doped_Semiconductor,,,GaSb_In,GaSb + In @ 1.0e+21 cm^-3,,,In,
Systematic_Generation,,1000000000000000.0,GaSb:Bi_1.0e+15,,Inherited,,,,,,,,,DOPED_004578,,,Doped_Semiconductor,,,GaSb_Bi,GaSb + Bi @ 1.0e+15 cm^-3,,,Bi,
Systematic_Generation,,5000000000000000.0,GaSb:Bi_5.0e+15,,Inherited,,,,,,,,,DOPED_004579,,,Doped_Semiconductor,,,GaSb_Bi,GaSb + Bi @ 5.0e+15 cm^-3,,,Bi,
Systematic_Generation,,1e+16,GaSb:Bi_1.0e+16,,Inherited,,,,,,,,,DOPED_004580,,,Doped_Semiconductor,,,GaSb_Bi,GaSb + Bi @ 1.0e+16 cm^-3,,,Bi,
Systematic_Generation,,5e+16,GaSb:Bi_5.0e+16,,Inherited,,,,,,,,,DOPED_004581,,,Doped_Semiconductor,,,GaSb_Bi,GaSb + Bi @ 5.0e+16 cm^-3,,,Bi,
Systematic_Generation,,1e+17,GaSb:Bi_1.0e+17,,Inherited,,,,,,,,,DOPED_004582,,,Doped_Semiconductor,,,GaSb_Bi,GaSb + Bi @ 1.0e+17 cm^-3,,,Bi,
Systematic_Generation,,5e+17,GaSb:Bi_5.0e+17,,Inherited,,,,,,,,,DOPED_004583,,,Doped_Semiconductor,,,GaSb_Bi,GaSb + Bi @ 5.0e+17 cm^-3,,,Bi,
Systematic_Generation,,1e+18,GaSb:Bi_1.0e+18,,Inherited,,,,,,,,,DOPED_004584,,,Doped_Semiconductor,,,GaSb_Bi,GaSb + Bi @ 1.0e+18 cm^-3,,,Bi,
Systematic_Generation,,5e+18,GaSb:Bi_5.0e+18,,Inherited,,,,,,,,,DOPED_004585,,,Doped_Semiconductor,,,GaSb_Bi,GaSb + Bi @ 5.0e+18 cm^-3,,,Bi,
Systematic_Generation,,1e+19,GaSb:Bi_1.0e+19,,Inherited,,,,,,,,,DOPED_004586,,,Doped_Semiconductor,,,GaSb_Bi,GaSb + Bi @ 1.0e+19 cm^-3,,,Bi,
Systematic_Generation,,5e+19,GaSb:Bi_5.0e+19,,Inherited,,,,,,,,,DOPED_004587,,,Doped_Semiconductor,,,GaSb_Bi,GaSb + Bi @ 5.0e+19 cm^-3,,,Bi,
Systematic_Generation,,1e+20,GaSb:Bi_1.0e+20,,Inherited,,,,,,,,,DOPED_004588,,,Doped_Semiconductor,,,GaSb_Bi,GaSb + Bi @ 1.0e+20 cm^-3,,,Bi,
Systematic_Generation,,1e+21,GaSb:Bi_1.0e+21,,Inherited,,,,,,,,,DOPED_004589,,,Doped_Semiconductor,,,GaSb_Bi,GaSb + Bi @ 1.0e+21 cm^-3,,,Bi,
Systematic_Generation,,1000000000000000.0,GaSb:Li_1.0e+15,,Inherited,,,,,,,,,DOPED_004590,,,Doped_Semiconductor,,,GaSb_Li,GaSb + Li @ 1.0e+15 cm^-3,,,Li,
Systematic_Generation,,5000000000000000.0,GaSb:Li_5.0e+15,,Inherited,,,,,,,,,DOPED_004591,,,Doped_Semiconductor,,,GaSb_Li,GaSb + Li @ 5.0e+15 cm^-3,,,Li,
Systematic_Generation,,1e+16,GaSb:Li_1.0e+16,,Inherited,,,,,,,,,DOPED_004592,,,Doped_Semiconductor,,,GaSb_Li,GaSb + Li @ 1.0e+16 cm^-3,,,Li,
Systematic_Generation,,5e+16,GaSb:Li_5.0e+16,,Inherited,,,,,,,,,DOPED_004593,,,Doped_Semiconductor,,,GaSb_Li,GaSb + Li @ 5.0e+16 cm^-3,,,Li,
Systematic_Generation,,1e+17,GaSb:Li_1.0e+17,,Inherited,,,,,,,,,DOPED_004594,,,Doped_Semiconductor,,,GaSb_Li,GaSb + Li @ 1.0e+17 cm^-3,,,Li,
Systematic_Generation,,5e+17,GaSb:Li_5.0e+17,,Inherited,,,,,,,,,DOPED_004595,,,Doped_Semiconductor,,,GaSb_Li,GaSb + Li @ 5.0e+17 cm^-3,,,Li,
Systematic_Generation,,1e+18,GaSb:Li_1.0e+18,,Inherited,,,,,,,,,DOPED_004596,,,Doped_Semiconductor,,,GaSb_Li,GaSb + Li @ 1.0e+18 cm^-3,,,Li,
Systematic_Generation,,5e+18,GaSb:Li_5.0e+18,,Inherited,,,,,,,,,DOPED_004597,,,Doped_Semiconductor,,,GaSb_Li,GaSb + Li @ 5.0e+18 cm^-3,,,Li,
Systematic_Generation,,1e+19,GaSb:Li_1.0e+19,,Inherited,,,,,,,,,DOPED_004598,,,Doped_Semiconductor,,,GaSb_Li,GaSb + Li @ 1.0e+19 cm^-3,,,Li,
Systematic_Generation,,5e+19,GaSb:Li_5.0e+19,,Inherited,,,,,,,,,DOPED_004599,,,Doped_Semiconductor,,,GaSb_Li,GaSb + Li @ 5.0e+19 cm^-3,,,Li,
Systematic_Generation,,1e+20,GaSb:Li_1.0e+20,,Inherited,,,,,,,,,DOPED_004600,,,Doped_Semiconductor,,,GaSb_Li,GaSb + Li @ 1.0e+20 cm^-3,,,Li,
Systematic_Generation,,1e+21,GaSb:Li_1.0e+21,,Inherited,,,,,,,,,DOPED_004601,,,Doped_Semiconductor,,,GaSb_Li,GaSb + Li @ 1.0e+21 cm^-3,,,Li,
Systematic_Generation,,1000000000000000.0,GaSb:S_1.0e+15,,Inherited,,,,,,,,,DOPED_004602,,,Doped_Semiconductor,,,GaSb_S,GaSb + S @ 1.0e+15 cm^-3,,,S,
Systematic_Generation,,5000000000000000.0,GaSb:S_5.0e+15,,Inherited,,,,,,,,,DOPED_004603,,,Doped_Semiconductor,,,GaSb_S,GaSb + S @ 5.0e+15 cm^-3,,,S,
Systematic_Generation,,1e+16,GaSb:S_1.0e+16,,Inherited,,,,,,,,,DOPED_004604,,,Doped_Semiconductor,,,GaSb_S,GaSb + S @ 1.0e+16 cm^-3,,,S,
Systematic_Generation,,5e+16,GaSb:S_5.0e+16,,Inherited,,,,,,,,,DOPED_004605,,,Doped_Semiconductor,,,GaSb_S,GaSb + S @ 5.0e+16 cm^-3,,,S,
Systematic_Generation,,1e+17,GaSb:S_1.0e+17,,Inherited,,,,,,,,,DOPED_004606,,,Doped_Semiconductor,,,GaSb_S,GaSb + S @ 1.0e+17 cm^-3,,,S,
Systematic_Generation,,5e+17,GaSb:S_5.0e+17,,Inherited,,,,,,,,,DOPED_004607,,,Doped_Semiconductor,,,GaSb_S,GaSb + S @ 5.0e+17 cm^-3,,,S,
Systematic_Generation,,1e+18,GaSb:S_1.0e+18,,Inherited,,,,,,,,,DOPED_004608,,,Doped_Semiconductor,,,GaSb_S,GaSb + S @ 1.0e+18 cm^-3,,,S,
Systematic_Generation,,5e+18,GaSb:S_5.0e+18,,Inherited,,,,,,,,,DOPED_004609,,,Doped_Semiconductor,,,GaSb_S,GaSb + S @ 5.0e+18 cm^-3,,,S,
Systematic_Generation,,1e+19,GaSb:S_1.0e+19,,Inherited,,,,,,,,,DOPED_004610,,,Doped_Semiconductor,,,GaSb_S,GaSb + S @ 1.0e+19 cm^-3,,,S,
Systematic_Generation,,5e+19,GaSb:S_5.0e+19,,Inherited,,,,,,,,,DOPED_004611,,,Doped_Semiconductor,,,GaSb_S,GaSb + S @ 5.0e+19 cm^-3,,,S,
Systematic_Generation,,1e+20,GaSb:S_1.0e+20,,Inherited,,,,,,,,,DOPED_004612,,,Doped_Semiconductor,,,GaSb_S,GaSb + S @ 1.0e+20 cm^-3,,,S,
Systematic_Generation,,1e+21,GaSb:S_1.0e+21,,Inherited,,,,,,,,,DOPED_004613,,,Doped_Semiconductor,,,GaSb_S,GaSb + S @ 1.0e+21 cm^-3,,,S,
Systematic_Generation,,1000000000000000.0,GaSb:Se_1.0e+15,,Inherited,,,,,,,,,DOPED_004614,,,Doped_Semiconductor,,,GaSb_Se,GaSb + Se @ 1.0e+15 cm^-3,,,Se,
Systematic_Generation,,5000000000000000.0,GaSb:Se_5.0e+15,,Inherited,,,,,,,,,DOPED_004615,,,Doped_Semiconductor,,,GaSb_Se,GaSb + Se @ 5.0e+15 cm^-3,,,Se,
Systematic_Generation,,1e+16,GaSb:Se_1.0e+16,,Inherited,,,,,,,,,DOPED_004616,,,Doped_Semiconductor,,,GaSb_Se,GaSb + Se @ 1.0e+16 cm^-3,,,Se,
Systematic_Generation,,5e+16,GaSb:Se_5.0e+16,,Inherited,,,,,,,,,DOPED_004617,,,Doped_Semiconductor,,,GaSb_Se,GaSb + Se @ 5.0e+16 cm^-3,,,Se,
Systematic_Generation,,1e+17,GaSb:Se_1.0e+17,,Inherited,,,,,,,,,DOPED_004618,,,Doped_Semiconductor,,,GaSb_Se,GaSb + Se @ 1.0e+17 cm^-3,,,Se,
Systematic_Generation,,5e+17,GaSb:Se_5.0e+17,,Inherited,,,,,,,,,DOPED_004619,,,Doped_Semiconductor,,,GaSb_Se,GaSb + Se @ 5.0e+17 cm^-3,,,Se,
Systematic_Generation,,1e+18,GaSb:Se_1.0e+18,,Inherited,,,,,,,,,DOPED_004620,,,Doped_Semiconductor,,,GaSb_Se,GaSb + Se @ 1.0e+18 cm^-3,,,Se,
Systematic_Generation,,5e+18,GaSb:Se_5.0e+18,,Inherited,,,,,,,,,DOPED_004621,,,Doped_Semiconductor,,,GaSb_Se,GaSb + Se @ 5.0e+18 cm^-3,,,Se,
Systematic_Generation,,1e+19,GaSb:Se_1.0e+19,,Inherited,,,,,,,,,DOPED_004622,,,Doped_Semiconductor,,,GaSb_Se,GaSb + Se @ 1.0e+19 cm^-3,,,Se,
Systematic_Generation,,5e+19,GaSb:Se_5.0e+19,,Inherited,,,,,,,,,DOPED_004623,,,Doped_Semiconductor,,,GaSb_Se,GaSb + Se @ 5.0e+19 cm^-3,,,Se,
Systematic_Generation,,1e+20,GaSb:Se_1.0e+20,,Inherited,,,,,,,,,DOPED_004624,,,Doped_Semiconductor,,,GaSb_Se,GaSb + Se @ 1.0e+20 cm^-3,,,Se,
Systematic_Generation,,1e+21,GaSb:Se_1.0e+21,,Inherited,,,,,,,,,DOPED_004625,,,Doped_Semiconductor,,,GaSb_Se,GaSb + Se @ 1.0e+21 cm^-3,,,Se,
Systematic_Generation,,1000000000000000.0,GaSb:Te_1.0e+15,,Inherited,,,,,,,,,DOPED_004626,,,Doped_Semiconductor,,,GaSb_Te,GaSb + Te @ 1.0e+15 cm^-3,,,Te,
Systematic_Generation,,5000000000000000.0,GaSb:Te_5.0e+15,,Inherited,,,,,,,,,DOPED_004627,,,Doped_Semiconductor,,,GaSb_Te,GaSb + Te @ 5.0e+15 cm^-3,,,Te,
Systematic_Generation,,1e+16,GaSb:Te_1.0e+16,,Inherited,,,,,,,,,DOPED_004628,,,Doped_Semiconductor,,,GaSb_Te,GaSb + Te @ 1.0e+16 cm^-3,,,Te,
Systematic_Generation,,5e+16,GaSb:Te_5.0e+16,,Inherited,,,,,,,,,DOPED_004629,,,Doped_Semiconductor,,,GaSb_Te,GaSb + Te @ 5.0e+16 cm^-3,,,Te,
Systematic_Generation,,1e+17,GaSb:Te_1.0e+17,,Inherited,,,,,,,,,DOPED_004630,,,Doped_Semiconductor,,,GaSb_Te,GaSb + Te @ 1.0e+17 cm^-3,,,Te,
Systematic_Generation,,5e+17,GaSb:Te_5.0e+17,,Inherited,,,,,,,,,DOPED_004631,,,Doped_Semiconductor,,,GaSb_Te,GaSb + Te @ 5.0e+17 cm^-3,,,Te,
Systematic_Generation,,1e+18,GaSb:Te_1.0e+18,,Inherited,,,,,,,,,DOPED_004632,,,Doped_Semiconductor,,,GaSb_Te,GaSb + Te @ 1.0e+18 cm^-3,,,Te,
Systematic_Generation,,5e+18,GaSb:Te_5.0e+18,,Inherited,,,,,,,,,DOPED_004633,,,Doped_Semiconductor,,,GaSb_Te,GaSb + Te @ 5.0e+18 cm^-3,,,Te,
Systematic_Generation,,1e+19,GaSb:Te_1.0e+19,,Inherited,,,,,,,,,DOPED_004634,,,Doped_Semiconductor,,,GaSb_Te,GaSb + Te @ 1.0e+19 cm^-3,,,Te,
Systematic_Generation,,5e+19,GaSb:Te_5.0e+19,,Inherited,,,,,,,,,DOPED_004635,,,Doped_Semiconductor,,,GaSb_Te,GaSb + Te @ 5.0e+19 cm^-3,,,Te,
Systematic_Generation,,1e+20,GaSb:Te_1.0e+20,,Inherited,,,,,,,,,DOPED_004636,,,Doped_Semiconductor,,,GaSb_Te,GaSb + Te @ 1.0e+20 cm^-3,,,Te,
Systematic_Generation,,1e+21,GaSb:Te_1.0e+21,,Inherited,,,,,,,,,DOPED_004637,,,Doped_Semiconductor,,,GaSb_Te,GaSb + Te @ 1.0e+21 cm^-3,,,Te,
Systematic_Generation,,1000000000000000.0,ZnO:B_1.0e+15,,Inherited,,,,,,,,,DOPED_004638,,,Doped_Semiconductor,,,ZnO_B,ZnO + B @ 1.0e+15 cm^-3,,,B,
Systematic_Generation,,5000000000000000.0,ZnO:B_5.0e+15,,Inherited,,,,,,,,,DOPED_004639,,,Doped_Semiconductor,,,ZnO_B,ZnO + B @ 5.0e+15 cm^-3,,,B,
Systematic_Generation,,1e+16,ZnO:B_1.0e+16,,Inherited,,,,,,,,,DOPED_004640,,,Doped_Semiconductor,,,ZnO_B,ZnO + B @ 1.0e+16 cm^-3,,,B,
Systematic_Generation,,5e+16,ZnO:B_5.0e+16,,Inherited,,,,,,,,,DOPED_004641,,,Doped_Semiconductor,,,ZnO_B,ZnO + B @ 5.0e+16 cm^-3,,,B,
Systematic_Generation,,1e+17,ZnO:B_1.0e+17,,Inherited,,,,,,,,,DOPED_004642,,,Doped_Semiconductor,,,ZnO_B,ZnO + B @ 1.0e+17 cm^-3,,,B,
Systematic_Generation,,5e+17,ZnO:B_5.0e+17,,Inherited,,,,,,,,,DOPED_004643,,,Doped_Semiconductor,,,ZnO_B,ZnO + B @ 5.0e+17 cm^-3,,,B,
Systematic_Generation,,1e+18,ZnO:B_1.0e+18,,Inherited,,,,,,,,,DOPED_004644,,,Doped_Semiconductor,,,ZnO_B,ZnO + B @ 1.0e+18 cm^-3,,,B,
Systematic_Generation,,5e+18,ZnO:B_5.0e+18,,Inherited,,,,,,,,,DOPED_004645,,,Doped_Semiconductor,,,ZnO_B,ZnO + B @ 5.0e+18 cm^-3,,,B,
Systematic_Generation,,1e+19,ZnO:B_1.0e+19,,Inherited,,,,,,,,,DOPED_004646,,,Doped_Semiconductor,,,ZnO_B,ZnO + B @ 1.0e+19 cm^-3,,,B,
Systematic_Generation,,5e+19,ZnO:B_5.0e+19,,Inherited,,,,,,,,,DOPED_004647,,,Doped_Semiconductor,,,ZnO_B,ZnO + B @ 5.0e+19 cm^-3,,,B,
Systematic_Generation,,1e+20,ZnO:B_1.0e+20,,Inherited,,,,,,,,,DOPED_004648,,,Doped_Semiconductor,,,ZnO_B,ZnO + B @ 1.0e+20 cm^-3,,,B,
Systematic_Generation,,1e+21,ZnO:B_1.0e+21,,Inherited,,,,,,,,,DOPED_004649,,,Doped_Semiconductor,,,ZnO_B,ZnO + B @ 1.0e+21 cm^-3,,,B,
Systematic_Generation,,1000000000000000.0,ZnO:P_1.0e+15,,Inherited,,,,,,,,,DOPED_004650,,,Doped_Semiconductor,,,ZnO_P,ZnO + P @ 1.0e+15 cm^-3,,,P,