source,n_elements,doping_concentration,name,termination,space_group,doping_level,volume_fraction,weight_percent,lattice_c,temperature,reinforcement,matrix,layers,material_id,molecular_weight,deposition_method,type,lattice_b,pdi,formula,composition,lattice_a,thickness_nm,dopant,substrate
Systematic_Generation,,,BaTe,,R-3m,,,,5.848,,,,,BIN_000540,,,Binary_Chalcogenide,5.812,,BaTe,Ba:Te = 1:1,5.212,,,
Systematic_Generation,,,BaTe2,,P-3m1,,,,18.961,,,,,BIN_000541,,,Binary_Chalcogenide,6.449,,BaTe2,Ba:Te = 1:2,5.057,,,
Systematic_Generation,,,Ba2Te3,,P-3m1,,,,15.453,,,,,BIN_000542,,,Binary_Chalcogenide,7.247,,Ba2Te3,Ba:Te = 2:3,7.105,,,
Systematic_Generation,,,Ba3Te4,,P-3m1,,,,14.805,,,,,BIN_000543,,,Binary_Chalcogenide,6.231,,Ba3Te4,Ba:Te = 3:4,5.512,,,
Systematic_Generation,,,ScS,,P-3m1,,,,13.543,,,,,BIN_000544,,,Binary_Chalcogenide,5.158,,ScS,Sc:S = 1:1,6.963,,,
Systematic_Generation,,,ScS2,,R-3m,,,,12.971,,,,,BIN_000545,,,Binary_Chalcogenide,6.214,,ScS2,Sc:S = 1:2,7.678,,,
Systematic_Generation,,,Sc2S3,,P63/mmc,,,,5.743,,,,,BIN_000546,,,Binary_Chalcogenide,5.517,,Sc2S3,Sc:S = 2:3,7.947,,,
Systematic_Generation,,,Sc3S4,,P63/mmc,,,,9.886,,,,,BIN_000547,,,Binary_Chalcogenide,6.573,,Sc3S4,Sc:S = 3:4,6.175,,,
Systematic_Generation,,,ScSe,,Fm-3m,,,,11.746,,,,,BIN_000548,,,Binary_Chalcogenide,5.999,,ScSe,Sc:Se = 1:1,3.869,,,
Systematic_Generation,,,ScSe2,,P-3m1,,,,5.056,,,,,BIN_000549,,,Binary_Chalcogenide,7.896,,ScSe2,Sc:Se = 1:2,5.261,,,
Systematic_Generation,,,Sc2Se3,,Fm-3m,,,,16.515,,,,,BIN_000550,,,Binary_Chalcogenide,4.987,,Sc2Se3,Sc:Se = 2:3,4.052,,,
Systematic_Generation,,,Sc3Se4,,Fm-3m,,,,5.198,,,,,BIN_000551,,,Binary_Chalcogenide,6.525,,Sc3Se4,Sc:Se = 3:4,7.467,,,
Systematic_Generation,,,ScTe,,P63/mmc,,,,12.366,,,,,BIN_000552,,,Binary_Chalcogenide,4.843,,ScTe,Sc:Te = 1:1,6.296,,,
Systematic_Generation,,,ScTe2,,Fm-3m,,,,5.435,,,,,BIN_000553,,,Binary_Chalcogenide,3.593,,ScTe2,Sc:Te = 1:2,6.897,,,
Systematic_Generation,,,Sc2Te3,,P-3m1,,,,8.075,,,,,BIN_000554,,,Binary_Chalcogenide,4.126,,Sc2Te3,Sc:Te = 2:3,4.11,,,
Systematic_Generation,,,Sc3Te4,,Fm-3m,,,,13.884,,,,,BIN_000555,,,Binary_Chalcogenide,7.416,,Sc3Te4,Sc:Te = 3:4,3.816,,,
Systematic_Generation,,,TiS,,Fm-3m,,,,5.865,,,,,BIN_000556,,,Binary_Chalcogenide,5.223,,TiS,Ti:S = 1:1,5.229,,,
Systematic_Generation,,,TiS2,,P63/mmc,,,,7.586,,,,,BIN_000557,,,Binary_Chalcogenide,6.063,,TiS2,Ti:S = 1:2,4.076,,,
Systematic_Generation,,,Ti2S3,,P-3m1,,,,13.928,,,,,BIN_000558,,,Binary_Chalcogenide,3.911,,Ti2S3,Ti:S = 2:3,3.96,,,
Systematic_Generation,,,Ti3S4,,R-3m,,,,9.366,,,,,BIN_000559,,,Binary_Chalcogenide,5.367,,Ti3S4,Ti:S = 3:4,5.507,,,
Systematic_Generation,,,TiSe,,Fm-3m,,,,19.993,,,,,BIN_000560,,,Binary_Chalcogenide,7.742,,TiSe,Ti:Se = 1:1,4.868,,,
Systematic_Generation,,,TiSe2,,P-3m1,,,,7.192,,,,,BIN_000561,,,Binary_Chalcogenide,6.095,,TiSe2,Ti:Se = 1:2,4.574,,,
Systematic_Generation,,,Ti2Se3,,Fm-3m,,,,13.763,,,,,BIN_000562,,,Binary_Chalcogenide,3.93,,Ti2Se3,Ti:Se = 2:3,5.274,,,
Systematic_Generation,,,Ti3Se4,,Fm-3m,,,,11.314,,,,,BIN_000563,,,Binary_Chalcogenide,6.824,,Ti3Se4,Ti:Se = 3:4,5.654,,,
Systematic_Generation,,,TiTe,,R-3m,,,,12.064,,,,,BIN_000564,,,Binary_Chalcogenide,6.139,,TiTe,Ti:Te = 1:1,4.651,,,
Systematic_Generation,,,TiTe2,,R-3m,,,,9.656,,,,,BIN_000565,,,Binary_Chalcogenide,6.132,,TiTe2,Ti:Te = 1:2,6.715,,,
Systematic_Generation,,,Ti2Te3,,P63/mmc,,,,14.52,,,,,BIN_000566,,,Binary_Chalcogenide,3.741,,Ti2Te3,Ti:Te = 2:3,3.519,,,
Systematic_Generation,,,Ti3Te4,,R-3m,,,,19.015,,,,,BIN_000567,,,Binary_Chalcogenide,3.693,,Ti3Te4,Ti:Te = 3:4,5.603,,,
Systematic_Generation,,,VS,,Fm-3m,,,,11.387,,,,,BIN_000568,,,Binary_Chalcogenide,5.69,,VS,V:S = 1:1,4.109,,,
Systematic_Generation,,,VS2,,Fm-3m,,,,12.013,,,,,BIN_000569,,,Binary_Chalcogenide,4.05,,VS2,V:S = 1:2,6.274,,,
Systematic_Generation,,,V2S3,,Fm-3m,,,,10.265,,,,,BIN_000570,,,Binary_Chalcogenide,7.368,,V2S3,V:S = 2:3,4.895,,,
Systematic_Generation,,,V3S4,,R-3m,,,,19.026,,,,,BIN_000571,,,Binary_Chalcogenide,5.263,,V3S4,V:S = 3:4,7.74,,,
Systematic_Generation,,,VSe,,P-3m1,,,,16.919,,,,,BIN_000572,,,Binary_Chalcogenide,6.4,,VSe,V:Se = 1:1,6.854,,,
Systematic_Generation,,,VSe2,,Fm-3m,,,,13.743,,,,,BIN_000573,,,Binary_Chalcogenide,7.142,,VSe2,V:Se = 1:2,3.923,,,
Systematic_Generation,,,V2Se3,,P63/mmc,,,,11.631,,,,,BIN_000574,,,Binary_Chalcogenide,7.395,,V2Se3,V:Se = 2:3,4.525,,,
Systematic_Generation,,,V3Se4,,P-3m1,,,,10.072,,,,,BIN_000575,,,Binary_Chalcogenide,7.285,,V3Se4,V:Se = 3:4,6.736,,,
Systematic_Generation,,,VTe,,R-3m,,,,17.993,,,,,BIN_000576,,,Binary_Chalcogenide,5.923,,VTe,V:Te = 1:1,7.462,,,
Systematic_Generation,,,VTe2,,P63/mmc,,,,16.271,,,,,BIN_000577,,,Binary_Chalcogenide,6.73,,VTe2,V:Te = 1:2,4.111,,,
Systematic_Generation,,,V2Te3,,P63/mmc,,,,15.475,,,,,BIN_000578,,,Binary_Chalcogenide,4.072,,V2Te3,V:Te = 2:3,7.73,,,
Systematic_Generation,,,V3Te4,,P-3m1,,,,9.446,,,,,BIN_000579,,,Binary_Chalcogenide,7.747,,V3Te4,V:Te = 3:4,6.951,,,
Systematic_Generation,,,CrS,,P-3m1,,,,11.596,,,,,BIN_000580,,,Binary_Chalcogenide,3.851,,CrS,Cr:S = 1:1,3.983,,,
Systematic_Generation,,,CrS2,,Fm-3m,,,,7.392,,,,,BIN_000581,,,Binary_Chalcogenide,6.457,,CrS2,Cr:S = 1:2,3.506,,,
Systematic_Generation,,,Cr2S3,,P63/mmc,,,,18.865,,,,,BIN_000582,,,Binary_Chalcogenide,6.979,,Cr2S3,Cr:S = 2:3,7.352,,,
Systematic_Generation,,,Cr3S4,,R-3m,,,,19.125,,,,,BIN_000583,,,Binary_Chalcogenide,4.43,,Cr3S4,Cr:S = 3:4,4.588,,,
Systematic_Generation,,,CrSe,,P63/mmc,,,,15.533,,,,,BIN_000584,,,Binary_Chalcogenide,3.868,,CrSe,Cr:Se = 1:1,5.273,,,
Systematic_Generation,,,CrSe2,,P-3m1,,,,18.368,,,,,BIN_000585,,,Binary_Chalcogenide,5.196,,CrSe2,Cr:Se = 1:2,6.091,,,
Systematic_Generation,,,Cr2Se3,,P63/mmc,,,,15.132,,,,,BIN_000586,,,Binary_Chalcogenide,5.469,,Cr2Se3,Cr:Se = 2:3,5.051,,,
Systematic_Generation,,,Cr3Se4,,P-3m1,,,,18.146,,,,,BIN_000587,,,Binary_Chalcogenide,3.614,,Cr3Se4,Cr:Se = 3:4,7.299,,,
Systematic_Generation,,,CrTe,,P-3m1,,,,15.064,,,,,BIN_000588,,,Binary_Chalcogenide,3.894,,CrTe,Cr:Te = 1:1,7.055,,,
Systematic_Generation,,,CrTe2,,P-3m1,,,,17.868,,,,,BIN_000589,,,Binary_Chalcogenide,4.919,,CrTe2,Cr:Te = 1:2,3.544,,,
Systematic_Generation,,,Cr2Te3,,Fm-3m,,,,18.719,,,,,BIN_000590,,,Binary_Chalcogenide,3.756,,Cr2Te3,Cr:Te = 2:3,5.551,,,
Systematic_Generation,,,Cr3Te4,,Fm-3m,,,,9.445,,,,,BIN_000591,,,Binary_Chalcogenide,4.555,,Cr3Te4,Cr:Te = 3:4,4.368,,,
Systematic_Generation,,,MnS,,R-3m,,,,12.813,,,,,BIN_000592,,,Binary_Chalcogenide,5.026,,MnS,Mn:S = 1:1,5.762,,,
Systematic_Generation,,,MnS2,,P-3m1,,,,5.123,,,,,BIN_000593,,,Binary_Chalcogenide,6.26,,MnS2,Mn:S = 1:2,5.797,,,
Systematic_Generation,,,Mn2S3,,R-3m,,,,6.871,,,,,BIN_000594,,,Binary_Chalcogenide,4.394,,Mn2S3,Mn:S = 2:3,3.954,,,
Systematic_Generation,,,Mn3S4,,Fm-3m,,,,19.567,,,,,BIN_000595,,,Binary_Chalcogenide,3.844,,Mn3S4,Mn:S = 3:4,4.823,,,
Systematic_Generation,,,MnSe,,P-3m1,,,,8.954,,,,,BIN_000596,,,Binary_Chalcogenide,4.699,,MnSe,Mn:Se = 1:1,7.295,,,
Systematic_Generation,,,MnSe2,,Fm-3m,,,,10.101,,,,,BIN_000597,,,Binary_Chalcogenide,7.622,,MnSe2,Mn:Se = 1:2,6.586,,,
Systematic_Generation,,,Mn2Se3,,P63/mmc,,,,11.007,,,,,BIN_000598,,,Binary_Chalcogenide,7.634,,Mn2Se3,Mn:Se = 2:3,7.47,,,
Systematic_Generation,,,Mn3Se4,,Fm-3m,,,,18.768,,,,,BIN_000599,,,Binary_Chalcogenide,5.078,,Mn3Se4,Mn:Se = 3:4,5.756,,,
Systematic_Generation,,,MnTe,,P-3m1,,,,17.668,,,,,BIN_000600,,,Binary_Chalcogenide,6.386,,MnTe,Mn:Te = 1:1,4.026,,,
Systematic_Generation,,,MnTe2,,P63/mmc,,,,14.656,,,,,BIN_000601,,,Binary_Chalcogenide,3.577,,MnTe2,Mn:Te = 1:2,5.191,,,
Systematic_Generation,,,Mn2Te3,,R-3m,,,,14.644,,,,,BIN_000602,,,Binary_Chalcogenide,5.829,,Mn2Te3,Mn:Te = 2:3,6.141,,,
Systematic_Generation,,,Mn3Te4,,P63/mmc,,,,14.918,,,,,BIN_000603,,,Binary_Chalcogenide,6.809,,Mn3Te4,Mn:Te = 3:4,4.501,,,
Systematic_Generation,,,FeS,,Fm-3m,,,,7.698,,,,,BIN_000604,,,Binary_Chalcogenide,7.62,,FeS,Fe:S = 1:1,3.715,,,
Systematic_Generation,,,FeS2,,Fm-3m,,,,11.881,,,,,BIN_000605,,,Binary_Chalcogenide,4.142,,FeS2,Fe:S = 1:2,4.799,,,
Systematic_Generation,,,Fe2S3,,P-3m1,,,,10.77,,,,,BIN_000606,,,Binary_Chalcogenide,6.119,,Fe2S3,Fe:S = 2:3,5.832,,,
Systematic_Generation,,,Fe3S4,,Fm-3m,,,,18.604,,,,,BIN_000607,,,Binary_Chalcogenide,6.474,,Fe3S4,Fe:S = 3:4,6.422,,,
Systematic_Generation,,,FeSe,,P63/mmc,,,,9.0,,,,,BIN_000608,,,Binary_Chalcogenide,5.421,,FeSe,Fe:Se = 1:1,5.102,,,
Systematic_Generation,,,FeSe2,,R-3m,,,,11.486,,,,,BIN_000609,,,Binary_Chalcogenide,4.951,,FeSe2,Fe:Se = 1:2,5.696,,,
Systematic_Generation,,,Fe2Se3,,Fm-3m,,,,10.411,,,,,BIN_000610,,,Binary_Chalcogenide,7.592,,Fe2Se3,Fe:Se = 2:3,4.505,,,
Systematic_Generation,,,Fe3Se4,,R-3m,,,,7.638,,,,,BIN_000611,,,Binary_Chalcogenide,5.32,,Fe3Se4,Fe:Se = 3:4,6.486,,,
Systematic_Generation,,,FeTe,,P63/mmc,,,,7.347,,,,,BIN_000612,,,Binary_Chalcogenide,5.16,,FeTe,Fe:Te = 1:1,6.145,,,
Systematic_Generation,,,FeTe2,,R-3m,,,,7.652,,,,,BIN_000613,,,Binary_Chalcogenide,4.42,,FeTe2,Fe:Te = 1:2,7.164,,,
Systematic_Generation,,,Fe2Te3,,Fm-3m,,,,12.245,,,,,BIN_000614,,,Binary_Chalcogenide,4.484,,Fe2Te3,Fe:Te = 2:3,4.586,,,
Systematic_Generation,,,Fe3Te4,,R-3m,,,,16.581,,,,,BIN_000615,,,Binary_Chalcogenide,5.446,,Fe3Te4,Fe:Te = 3:4,6.522,,,
Systematic_Generation,,,CoS,,P63/mmc,,,,15.714,,,,,BIN_000616,,,Binary_Chalcogenide,4.304,,CoS,Co:S = 1:1,4.601,,,
Systematic_Generation,,,CoS2,,R-3m,,,,9.976,,,,,BIN_000617,,,Binary_Chalcogenide,6.489,,CoS2,Co:S = 1:2,6.923,,,
Systematic_Generation,,,Co2S3,,Fm-3m,,,,15.794,,,,,BIN_000618,,,Binary_Chalcogenide,7.437,,Co2S3,Co:S = 2:3,5.663,,,
Systematic_Generation,,,Co3S4,,P63/mmc,,,,7.271,,,,,BIN_000619,,,Binary_Chalcogenide,6.904,,Co3S4,Co:S = 3:4,6.827,,,
Systematic_Generation,,,CoSe,,P63/mmc,,,,5.095,,,,,BIN_000620,,,Binary_Chalcogenide,7.644,,CoSe,Co:Se = 1:1,7.627,,,
Systematic_Generation,,,CoSe2,,R-3m,,,,6.223,,,,,BIN_000621,,,Binary_Chalcogenide,3.726,,CoSe2,Co:Se = 1:2,3.526,,,
Systematic_Generation,,,Co2Se3,,P-3m1,,,,19.218,,,,,BIN_000622,,,Binary_Chalcogenide,6.819,,Co2Se3,Co:Se = 2:3,5.88,,,
Systematic_Generation,,,Co3Se4,,P-3m1,,,,15.284,,,,,BIN_000623,,,Binary_Chalcogenide,3.702,,Co3Se4,Co:Se = 3:4,6.862,,,
Systematic_Generation,,,CoTe,,Fm-3m,,,,5.94,,,,,BIN_000624,,,Binary_Chalcogenide,4.802,,CoTe,Co:Te = 1:1,7.009,,,
Systematic_Generation,,,CoTe2,,P63/mmc,,,,19.017,,,,,BIN_000625,,,Binary_Chalcogenide,6.155,,CoTe2,Co:Te = 1:2,5.401,,,
Systematic_Generation,,,Co2Te3,,P63/mmc,,,,7.143,,,,,BIN_000626,,,Binary_Chalcogenide,4.086,,Co2Te3,Co:Te = 2:3,4.353,,,
Systematic_Generation,,,Co3Te4,,P-3m1,,,,6.5,,,,,BIN_000627,,,Binary_Chalcogenide,6.852,,Co3Te4,Co:Te = 3:4,6.484,,,
Systematic_Generation,,,NiS,,R-3m,,,,7.482,,,,,BIN_000628,,,Binary_Chalcogenide,3.938,,NiS,Ni:S = 1:1,3.76,,,
Systematic_Generation,,,NiS2,,P-3m1,,,,14.969,,,,,BIN_000629,,,Binary_Chalcogenide,4.817,,NiS2,Ni:S = 1:2,5.51,,,
Systematic_Generation,,,Ni2S3,,Fm-3m,,,,9.736,,,,,BIN_000630,,,Binary_Chalcogenide,3.679,,Ni2S3,Ni:S = 2:3,5.106,,,
Systematic_Generation,,,Ni3S4,,P63/mmc,,,,16.423,,,,,BIN_000631,,,Binary_Chalcogenide,6.663,,Ni3S4,Ni:S = 3:4,4.783,,,
Systematic_Generation,,,NiSe,,Fm-3m,,,,19.691,,,,,BIN_000632,,,Binary_Chalcogenide,5.947,,NiSe,Ni:Se = 1:1,3.589,,,
Systematic_Generation,,,NiSe2,,R-3m,,,,7.923,,,,,BIN_000633,,,Binary_Chalcogenide,5.087,,NiSe2,Ni:Se = 1:2,6.548,,,
Systematic_Generation,,,Ni2Se3,,R-3m,,,,7.022,,,,,BIN_000634,,,Binary_Chalcogenide,6.043,,Ni2Se3,Ni:Se = 2:3,4.225,,,
Systematic_Generation,,,Ni3Se4,,R-3m,,,,10.894,,,,,BIN_000635,,,Binary_Chalcogenide,5.528,,Ni3Se4,Ni:Se = 3:4,5.271,,,
Systematic_Generation,,,NiTe,,P-3m1,,,,7.452,,,,,BIN_000636,,,Binary_Chalcogenide,4.753,,NiTe,Ni:Te = 1:1,5.664,,,
Systematic_Generation,,,NiTe2,,P-3m1,,,,7.931,,,,,BIN_000637,,,Binary_Chalcogenide,4.744,,NiTe2,Ni:Te = 1:2,3.712,,,
Systematic_Generation,,,Ni2Te3,,R-3m,,,,16.45,,,,,BIN_000638,,,Binary_Chalcogenide,4.199,,Ni2Te3,Ni:Te = 2:3,3.753,,,
Systematic_Generation,,,Ni3Te4,,P63/mmc,,,,6.115,,,,,BIN_000639,,,Binary_Chalcogenide,7.457,,Ni3Te4,Ni:Te = 3:4,3.946,,,
Systematic_Generation,,,CuS,,P63/mmc,,,,16.34,,,,,BIN_000640,,,Binary_Chalcogenide,7.29,,CuS,Cu:S = 1:1,3.655,,,
Systematic_Generation,,,CuS2,,P-3m1,,,,10.866,,,,,BIN_000641,,,Binary_Chalcogenide,4.609,,CuS2,Cu:S = 1:2,7.487,,,
Systematic_Generation,,,Cu2S3,,Fm-3m,,,,5.755,,,,,BIN_000642,,,Binary_Chalcogenide,4.158,,Cu2S3,Cu:S = 2:3,5.279,,,
Systematic_Generation,,,Cu3S4,,P63/mmc,,,,17.693,,,,,BIN_000643,,,Binary_Chalcogenide,5.371,,Cu3S4,Cu:S = 3:4,4.894,,,
Systematic_Generation,,,CuSe,,P-3m1,,,,7.068,,,,,BIN_000644,,,Binary_Chalcogenide,7.597,,CuSe,Cu:Se = 1:1,6.277,,,
Systematic_Generation,,,CuSe2,,R-3m,,,,12.475,,,,,BIN_000645,,,Binary_Chalcogenide,5.299,,CuSe2,Cu:Se = 1:2,4.2,,,
Systematic_Generation,,,Cu2Se3,,Fm-3m,,,,5.311,,,,,BIN_000646,,,Binary_Chalcogenide,5.373,,Cu2Se3,Cu:Se = 2:3,4.83,,,
Systematic_Generation,,,Cu3Se4,,P63/mmc,,,,11.848,,,,,BIN_000647,,,Binary_Chalcogenide,7.049,,Cu3Se4,Cu:Se = 3:4,5.132,,,
Systematic_Generation,,,CuTe,,P63/mmc,,,,7.914,,,,,BIN_000648,,,Binary_Chalcogenide,6.252,,CuTe,Cu:Te = 1:1,5.051,,,
Systematic_Generation,,,CuTe2,,R-3m,,,,13.923,,,,,BIN_000649,,,Binary_Chalcogenide,4.902,,CuTe2,Cu:Te = 1:2,7.186,,,
Systematic_Generation,,,Cu2Te3,,R-3m,,,,17.948,,,,,BIN_000650,,,Binary_Chalcogenide,6.037,,Cu2Te3,Cu:Te = 2:3,7.335,,,
Systematic_Generation,,,Cu3Te4,,Fm-3m,,,,10.941,,,,,BIN_000651,,,Binary_Chalcogenide,7.952,,Cu3Te4,Cu:Te = 3:4,6.005,,,
Systematic_Generation,,,ZnS,,R-3m,,,,10.471,,,,,BIN_000652,,,Binary_Chalcogenide,6.42,,ZnS,Zn:S = 1:1,5.59,,,
Systematic_Generation,,,ZnS2,,P63/mmc,,,,9.474,,,,,BIN_000653,,,Binary_Chalcogenide,6.718,,ZnS2,Zn:S = 1:2,4.492,,,
Systematic_Generation,,,Zn2S3,,Fm-3m,,,,15.317,,,,,BIN_000654,,,Binary_Chalcogenide,3.755,,Zn2S3,Zn:S = 2:3,3.887,,,
Systematic_Generation,,,Zn3S4,,P63/mmc,,,,12.763,,,,,BIN_000655,,,Binary_Chalcogenide,5.484,,Zn3S4,Zn:S = 3:4,7.575,,,
Systematic_Generation,,,ZnSe,,P63/mmc,,,,11.91,,,,,BIN_000656,,,Binary_Chalcogenide,4.315,,ZnSe,Zn:Se = 1:1,5.373,,,
Systematic_Generation,,,ZnSe2,,Fm-3m,,,,7.944,,,,,BIN_000657,,,Binary_Chalcogenide,4.353,,ZnSe2,Zn:Se = 1:2,5.411,,,
Systematic_Generation,,,Zn2Se3,,R-3m,,,,16.785,,,,,BIN_000658,,,Binary_Chalcogenide,7.644,,Zn2Se3,Zn:Se = 2:3,7.279,,,
Systematic_Generation,,,Zn3Se4,,P63/mmc,,,,18.567,,,,,BIN_000659,,,Binary_Chalcogenide,5.286,,Zn3Se4,Zn:Se = 3:4,5.193,,,
Systematic_Generation,,,ZnTe,,R-3m,,,,12.379,,,,,BIN_000660,,,Binary_Chalcogenide,7.7,,ZnTe,Zn:Te = 1:1,7.876,,,
Systematic_Generation,,,ZnTe2,,P63/mmc,,,,15.768,,,,,BIN_000661,,,Binary_Chalcogenide,4.64,,ZnTe2,Zn:Te = 1:2,6.613,,,
Systematic_Generation,,,Zn2Te3,,R-3m,,,,18.285,,,,,BIN_000662,,,Binary_Chalcogenide,5.906,,Zn2Te3,Zn:Te = 2:3,7.171,,,
Systematic_Generation,,,Zn3Te4,,P63/mmc,,,,19.487,,,,,BIN_000663,,,Binary_Chalcogenide,7.278,,Zn3Te4,Zn:Te = 3:4,7.463,,,
Systematic_Generation,,,YS,,Fm-3m,,,,13.905,,,,,BIN_000664,,,Binary_Chalcogenide,5.976,,YS,Y:S = 1:1,7.52,,,
Systematic_Generation,,,YS2,,R-3m,,,,17.233,,,,,BIN_000665,,,Binary_Chalcogenide,7.459,,YS2,Y:S = 1:2,5.615,,,
Systematic_Generation,,,Y2S3,,P63/mmc,,,,14.608,,,,,BIN_000666,,,Binary_Chalcogenide,6.695,,Y2S3,Y:S = 2:3,4.586,,,
Systematic_Generation,,,Y3S4,,P-3m1,,,,9.375,,,,,BIN_000667,,,Binary_Chalcogenide,3.65,,Y3S4,Y:S = 3:4,3.971,,,
Systematic_Generation,,,YSe,,Fm-3m,,,,7.137,,,,,BIN_000668,,,Binary_Chalcogenide,4.97,,YSe,Y:Se = 1:1,7.975,,,
Systematic_Generation,,,YSe2,,Fm-3m,,,,15.253,,,,,BIN_000669,,,Binary_Chalcogenide,4.121,,YSe2,Y:Se = 1:2,6.464,,,
Systematic_Generation,,,Y2Se3,,R-3m,,,,13.074,,,,,BIN_000670,,,Binary_Chalcogenide,4.262,,Y2Se3,Y:Se = 2:3,7.212,,,
Systematic_Generation,,,Y3Se4,,P63/mmc,,,,10.43,,,,,BIN_000671,,,Binary_Chalcogenide,6.593,,Y3Se4,Y:Se = 3:4,6.318,,,
Systematic_Generation,,,YTe,,P-3m1,,,,9.509,,,,,BIN_000672,,,Binary_Chalcogenide,7.096,,YTe,Y:Te = 1:1,6.433,,,
Systematic_Generation,,,YTe2,,P-3m1,,,,11.57,,,,,BIN_000673,,,Binary_Chalcogenide,6.307,,YTe2,Y:Te = 1:2,4.75,,,
Systematic_Generation,,,Y2Te3,,P63/mmc,,,,12.511,,,,,BIN_000674,,,Binary_Chalcogenide,4.333,,Y2Te3,Y:Te = 2:3,6.392,,,
Systematic_Generation,,,Y3Te4,,Fm-3m,,,,8.452,,,,,BIN_000675,,,Binary_Chalcogenide,5.249,,Y3Te4,Y:Te = 3:4,7.001,,,
Systematic_Generation,,,ZrS,,R-3m,,,,18.331,,,,,BIN_000676,,,Binary_Chalcogenide,4.477,,ZrS,Zr:S = 1:1,4.164,,,
Systematic_Generation,,,ZrS2,,R-3m,,,,15.022,,,,,BIN_000677,,,Binary_Chalcogenide,6.156,,ZrS2,Zr:S = 1:2,4.542,,,
Systematic_Generation,,,Zr2S3,,P63/mmc,,,,12.201,,,,,BIN_000678,,,Binary_Chalcogenide,7.156,,Zr2S3,Zr:S = 2:3,4.012,,,
Systematic_Generation,,,Zr3S4,,P63/mmc,,,,10.26,,,,,BIN_000679,,,Binary_Chalcogenide,7.404,,Zr3S4,Zr:S = 3:4,4.142,,,
Systematic_Generation,,,ZrSe,,P63/mmc,,,,16.463,,,,,BIN_000680,,,Binary_Chalcogenide,5.695,,ZrSe,Zr:Se = 1:1,4.94,,,
Systematic_Generation,,,ZrSe2,,P-3m1,,,,6.337,,,,,BIN_000681,,,Binary_Chalcogenide,4.87,,ZrSe2,Zr:Se = 1:2,3.622,,,
Systematic_Generation,,,Zr2Se3,,P63/mmc,,,,7.7,,,,,BIN_000682,,,Binary_Chalcogenide,7.948,,Zr2Se3,Zr:Se = 2:3,6.039,,,
Systematic_Generation,,,Zr3Se4,,P-3m1,,,,10.149,,,,,BIN_000683,,,Binary_Chalcogenide,6.455,,Zr3Se4,Zr:Se = 3:4,4.876,,,
Systematic_Generation,,,ZrTe,,R-3m,,,,9.103,,,,,BIN_000684,,,Binary_Chalcogenide,3.677,,ZrTe,Zr:Te = 1:1,6.764,,,
Systematic_Generation,,,ZrTe2,,P63/mmc,,,,18.031,,,,,BIN_000685,,,Binary_Chalcogenide,7.385,,ZrTe2,Zr:Te = 1:2,3.957,,,
Systematic_Generation,,,Zr2Te3,,P63/mmc,,,,10.526,,,,,BIN_000686,,,Binary_Chalcogenide,6.966,,Zr2Te3,Zr:Te = 2:3,7.324,,,
Systematic_Generation,,,Zr3Te4,,R-3m,,,,15.675,,,,,BIN_000687,,,Binary_Chalcogenide,4.814,,Zr3Te4,Zr:Te = 3:4,5.262,,,
Systematic_Generation,,,NbS,,R-3m,,,,9.131,,,,,BIN_000688,,,Binary_Chalcogenide,7.92,,NbS,Nb:S = 1:1,6.898,,,
Systematic_Generation,,,NbS2,,P-3m1,,,,15.178,,,,,BIN_000689,,,Binary_Chalcogenide,5.01,,NbS2,Nb:S = 1:2,4.231,,,
Systematic_Generation,,,Nb2S3,,Fm-3m,,,,18.517,,,,,BIN_000690,,,Binary_Chalcogenide,3.55,,Nb2S3,Nb:S = 2:3,5.256,,,
Systematic_Generation,,,Nb3S4,,P63/mmc,,,,9.428,,,,,BIN_000691,,,Binary_Chalcogenide,5.464,,Nb3S4,Nb:S = 3:4,4.308,,,
Systematic_Generation,,,NbSe,,Fm-3m,,,,12.172,,,,,BIN_000692,,,Binary_Chalcogenide,3.943,,NbSe,Nb:Se = 1:1,3.639,,,
Systematic_Generation,,,NbSe2,,P-3m1,,,,10.164,,,,,BIN_000693,,,Binary_Chalcogenide,7.425,,NbSe2,Nb:Se = 1:2,5.575,,,
Systematic_Generation,,,Nb2Se3,,P-3m1,,,,8.39,,,,,BIN_000694,,,Binary_Chalcogenide,5.451,,Nb2Se3,Nb:Se = 2:3,7.631,,,
Systematic_Generation,,,Nb3Se4,,P-3m1,,,,8.426,,,,,BIN_000695,,,Binary_Chalcogenide,7.387,,Nb3Se4,Nb:Se = 3:4,5.75,,,
Systematic_Generation,,,NbTe,,Fm-3m,,,,16.654,,,,,BIN_000696,,,Binary_Chalcogenide,5.216,,NbTe,Nb:Te = 1:1,5.674,,,
Systematic_Generation,,,NbTe2,,P-3m1,,,,18.465,,,,,BIN_000697,,,Binary_Chalcogenide,6.28,,NbTe2,Nb:Te = 1:2,5.39,,,
Systematic_Generation,,,Nb2Te3,,P-3m1,,,,16.32,,,,,BIN_000698,,,Binary_Chalcogenide,4.392,,Nb2Te3,Nb:Te = 2:3,4.016,,,
Systematic_Generation,,,Nb3Te4,,Fm-3m,,,,16.962,,,,,BIN_000699,,,Binary_Chalcogenide,6.25,,Nb3Te4,Nb:Te = 3:4,4.763,,,
Systematic_Generation,,,MoS,,P63/mmc,,,,18.192,,,,,BIN_000700,,,Binary_Chalcogenide,7.686,,MoS,Mo:S = 1:1,4.243,,,
Systematic_Generation,,,MoS2,,R-3m,,,,5.607,,,,,BIN_000701,,,Binary_Chalcogenide,7.923,,MoS2,Mo:S = 1:2,7.626,,,
Systematic_Generation,,,Mo2S3,,P-3m1,,,,11.062,,,,,BIN_000702,,,Binary_Chalcogenide,3.966,,Mo2S3,Mo:S = 2:3,7.109,,,
Systematic_Generation,,,Mo3S4,,R-3m,,,,11.953,,,,,BIN_000703,,,Binary_Chalcogenide,6.491,,Mo3S4,Mo:S = 3:4,4.678,,,
Systematic_Generation,,,MoSe,,P63/mmc,,,,7.822,,,,,BIN_000704,,,Binary_Chalcogenide,3.798,,MoSe,Mo:Se = 1:1,4.817,,,
Systematic_Generation,,,MoSe2,,P-3m1,,,,9.647,,,,,BIN_000705,,,Binary_Chalcogenide,3.861,,MoSe2,Mo:Se = 1:2,6.696,,,
Systematic_Generation,,,Mo2Se3,,Fm-3m,,,,9.003,,,,,BIN_000706,,,Binary_Chalcogenide,6.782,,Mo2Se3,Mo:Se = 2:3,7.593,,,
Systematic_Generation,,,Mo3Se4,,R-3m,,,,5.049,,,,,BIN_000707,,,Binary_Chalcogenide,7.823,,Mo3Se4,Mo:Se = 3:4,4.388,,,